       N       E                     dE             d eps       ncg     rms          rms(c)
DAV:   1    -0.880251334846E+01   -0.88025E+01   -0.49964E+03  2688   0.487E+02
DAV:   2    -0.219735438682E+02   -0.13171E+02   -0.13067E+02  3192   0.450E+01
DAV:   3    -0.220233246291E+02   -0.49781E-01   -0.49773E-01  3408   0.355E+00
DAV:   4    -0.220234408281E+02   -0.11620E-03   -0.11620E-03  3840   0.108E-01
DAV:   5    -0.220234409617E+02   -0.13365E-06   -0.13265E-06  3600   0.203E-03    0.194E+01
DAV:   6    -0.190852002383E+02    0.29382E+01   -0.12785E+01  2736   0.280E+01    0.277E+00
DAV:   7    -0.189921933701E+02    0.93007E-01   -0.12522E-01  3648   0.227E+00    0.173E+00
DAV:   8    -0.189581908177E+02    0.34003E-01   -0.95609E-03  2856   0.540E-01    0.243E-01
DAV:   9    -0.189576551129E+02    0.53570E-03   -0.83842E-04  3744   0.103E-01    0.661E-02
DAV:  10    -0.189575935962E+02    0.61517E-04   -0.20071E-05  1728   0.255E-02
   1 F= -.18957594E+02 E0= -.18956453E+02  d E =-.189576E+02
