       N       E                     dE             d eps       ncg     rms          rms(c)
DAV:   1     0.279187014787E+03    0.27919E+03   -0.23915E+04   384   0.793E+02
DAV:   2    -0.119549358482E+02   -0.29114E+03   -0.28734E+03   504   0.223E+02
DAV:   3    -0.200244326489E+02   -0.80695E+01   -0.80649E+01   456   0.425E+01
DAV:   4    -0.201171349764E+02   -0.92702E-01   -0.92700E-01   648   0.330E+00
DAV:   5    -0.201173280077E+02   -0.19303E-03   -0.19303E-03   456   0.125E-01    0.105E+01
DAV:   6    -0.192366934719E+02    0.88063E+00   -0.25771E+00   480   0.882E+00    0.839E+00
DAV:   7    -0.191757370250E+02    0.60956E-01   -0.78349E-01   384   0.284E+00    0.301E+00
DAV:   8    -0.191758899024E+02   -0.15288E-03   -0.58238E-02   480   0.161E+00    0.996E-01
DAV:   9    -0.191770649493E+02   -0.11750E-02   -0.74905E-03   480   0.535E-01    0.164E-01
DAV:  10    -0.191769907037E+02    0.74246E-04   -0.10042E-03   480   0.199E-01    0.803E-02
DAV:  11    -0.191771221161E+02   -0.13141E-03   -0.33905E-04   408   0.948E-02    0.302E-02
DAV:  12    -0.191771279291E+02   -0.58130E-05   -0.43003E-05   360   0.422E-02
   1 F= -.19177128E+02 E0= -.19177128E+02  d E =-.793615E-16
