       N       E                     dE             d eps       ncg     rms          rms(c)
DAV:   1    -0.942180444426E+01   -0.94218E+01   -0.34009E+03  2688   0.249E+02
DAV:   2    -0.150369203871E+02   -0.56151E+01   -0.55761E+01  3960   0.223E+01
DAV:   3    -0.150575444637E+02   -0.20624E-01   -0.20623E-01  3336   0.167E+00
DAV:   4    -0.150575754827E+02   -0.31019E-04   -0.31019E-04  4680   0.595E-02
DAV:   5    -0.150575754852E+02   -0.25125E-08   -0.23943E-08  3456   0.440E-04    0.266E+00
DAV:   6    -0.150064494810E+02    0.51126E-01   -0.61827E-03  4080   0.230E-01    0.154E+00
DAV:   7    -0.149688064153E+02    0.37643E-01   -0.17986E-02  3552   0.371E-01    0.273E-01
DAV:   8    -0.149686874233E+02    0.11899E-03   -0.79350E-05  4632   0.329E-02    0.378E-02
DAV:   9    -0.149686789102E+02    0.85132E-05   -0.37490E-06  2328   0.546E-03
   1 F= -.14968679E+02 E0= -.14967475E+02  d E =-.240881E-02
