unknown system                          
   1.00000000000000     
     4.038445    0.000000    0.000000
     0.000000    4.038445    0.000000
     0.000000    0.000000    4.038445
   Al
     4
Direct
  0.000000  0.000000  0.000000
  0.000000  0.500000  0.500000
  0.500000  0.000000  0.500000
  0.500000  0.500000  0.000000
 
   40   40   40
 -.57653174223E+00 -.16335266333E+00 0.10250586684E+01 0.28395921743E+01 0.50491104827E+01
 0.73715976176E+01 0.95165930830E+01 0.11230867596E+02 0.12342077165E+02 0.12794398667E+02
 0.12661412010E+02 0.12116402673E+02 0.11343652824E+02 0.10501881472E+02 0.97068034252E+01
 0.90204077933E+01 0.84633436575E+01 0.80347667690E+01 0.77288686787E+01 0.75436863286E+01
 0.74814055514E+01 0.75436863286E+01 0.77288686787E+01 0.80347667690E+01 0.84633436575E+01
 0.90204077933E+01 0.97068034252E+01 0.10501881472E+02 0.11343652824E+02 0.12116402673E+02
 0.12661412010E+02 0.12794398667E+02 0.12342077165E+02 0.11230867596E+02 0.95165930830E+01
 0.73715976176E+01 0.50491104827E+01 0.28395921743E+01 0.10250586684E+01 -.16335266333E+00
 -.16335266333E+00 0.24404433421E+00 0.14142203044E+01 0.31966525671E+01 0.53606721198E+01
 0.76277663025E+01 0.97132162052E+01 0.11370258464E+02 0.12432598082E+02 0.12849072292E+02
 0.12695349808E+02 0.12142792233E+02 0.11370811686E+02 0.10534712570E+02 0.97471342524E+01
 0.90679524883E+01 0.85167291331E+01 0.80923336986E+01 0.77891410430E+01 0.76054749671E+01
 0.75436863286E+01 0.76054749671E+01 0.77891410430E+01 0.80923336986E+01 0.85167291331E+01
 0.90679524883E+01 0.97471342524E+01 0.10534712570E+02 0.11370811686E+02 0.12142792233E+02
 0.12695349808E+02 0.12849072292E+02 0.12432598082E+02 0.11370258464E+02 0.97132162052E+01
 0.76277663025E+01 0.53606721198E+01 0.31966525671E+01 0.14142203044E+01 0.24404433421E+00
 0.10250586684E+01 0.14142203044E+01 0.25280346287E+01 0.42139062585E+01 0.62441718240E+01
 0.83509220038E+01 0.10265640603E+02 0.11759709516E+02 0.12683934155E+02 0.13000259837E+02
 0.12789928530E+02 0.12217758702E+02 0.11449629312E+02 0.10631165866E+02 0.98661997449E+01
 0.92086014048E+01 0.86748754937E+01 0.82630978808E+01 0.79681505602E+01 0.77891410430E+01
 0.77288686787E+01 0.77891410430E+01 0.79681505602E+01 0.82630978808E+01 0.86748754937E+01
 0.92086014048E+01 0.98661997449E+01 0.10631165866E+02 0.11449629312E+02 0.12217758702E+02
 0.12789928530E+02 0.13000259837E+02 0.12683934155E+02 0.11759709516E+02 0.10265640603E+02
 0.83509220038E+01 0.62441718240E+01 0.42139062585E+01 0.25280346287E+01 0.14142203044E+01
 0.28395921743E+01 0.31966525671E+01 0.42139062585E+01 0.57406367215E+01 0.75580820904E+01
 0.94161413628E+01 0.11070647269E+02 0.12319892354E+02 0.13040171218E+02 0.13212541149E+02
 0.12925293068E+02 0.12329751620E+02 0.11573187149E+02 0.10786397124E+02 0.10059809166E+02
 0.94383154762E+01 0.89339563617E+01 0.85436892562E+01 0.82630978808E+01 0.80923336986E+01
 0.80347667690E+01 0.80923336986E+01 0.82630978808E+01 0.85436892562E+01 0.89339563617E+01
 0.94383154762E+01 0.10059809166E+02 0.10786397124E+02 0.11573187149E+02 0.12329751620E+02
 0.12925293068E+02 0.13212541149E+02 0.13040171218E+02 0.12319892354E+02 0.11070647269E+02
 0.94161413628E+01 0.75580820904E+01 0.57406367215E+01 0.42139062585E+01 0.31966525671E+01
 0.50491104827E+01 0.53606721198E+01 0.62441718240E+01 0.75580820904E+01 0.91007545203E+01
 0.10646897449E+02 0.11982682397E+02 0.12939092550E+02 0.13422923222E+02 0.13436788087E+02
 0.13073661588E+02 0.12463160294E+02 0.11733290286E+02 0.10995982734E+02 0.10325212201E+02
 0.97551787679E+01 0.92928332909E+01 0.89339563617E+01 0.86748754937E+01 0.85167291331E+01
 0.84633436575E+01 0.85167291331E+01 0.86748754937E+01 0.89339563617E+01 0.92928332909E+01
 0.97551787679E+01 0.10325212201E+02 0.10995982734E+02 0.11733290286E+02 0.12463160294E+02
 0.13073661588E+02 0.13436788087E+02 0.13422923222E+02 0.12939092550E+02 0.11982682397E+02
 0.10646897449E+02 0.91007545203E+01 0.75580820904E+01 0.62441718240E+01 0.53606721198E+01
 0.73715976176E+01 0.76277663025E+01 0.83509220038E+01 0.94161413628E+01 0.10646897449E+02
 0.11849011545E+02 0.12843608782E+02 0.13497743516E+02 0.13750150745E+02 0.13623389903E+02
 0.13206205627E+02 0.12603521669E+02 0.11924408170E+02 0.11259248676E+02 0.10664114943E+02
 0.10162077458E+02 0.97551787679E+01 0.94383154762E+01 0.92086014048E+01 0.90679524883E+01
 0.90204077933E+01 0.90679524883E+01 0.92086014048E+01 0.94383154762E+01 0.97551787679E+01
 0.10162077458E+02 0.10664114943E+02 0.11259248676E+02 0.11924408170E+02 0.12603521669E+02
 0.13206205627E+02 0.13623389903E+02 0.13750150745E+02 0.13497743516E+02 0.12843608782E+02
 0.11849011545E+02 0.10646897449E+02 0.94161413628E+01 0.83509220038E+01 0.76277663025E+01
 0.95165930830E+01 0.97132162052E+01 0.10265640603E+02 0.11070647269E+02 0.11982682397E+02
 0.12843608782E+02 0.13512782857E+02 0.13894270341E+02 0.13956495113E+02 0.13735272634E+02
 0.13301817915E+02 0.12742882257E+02 0.12146446346E+02 0.11580027818E+02 0.11081730885E+02
 0.10664114943E+02 0.10325212201E+02 0.10059809166E+02 0.98661997449E+01 0.97471342524E+01
 0.97068034252E+01 0.97471342524E+01 0.98661997449E+01 0.10059809166E+02 0.10325212201E+02
 0.10664114943E+02 0.11081730885E+02 0.11580027818E+02 0.12146446346E+02 0.12742882257E+02
 0.13301817915E+02 0.13735272634E+02 0.13956495113E+02 0.13894270341E+02 0.13512782857E+02
 0.12843608782E+02 0.11982682397E+02 0.11070647269E+02 0.10265640603E+02 0.97132162052E+01
 0.11230867596E+02 0.11370258464E+02 0.11759709516E+02 0.12319892354E+02 0.12939092550E+02
 0.13497743516E+02 0.13894270341E+02 0.14067513352E+02 0.14009507036E+02 0.13752892829E+02
 0.13353632897E+02 0.12882384018E+02 0.12403888573E+02 0.11962729288E+02 0.11580027818E+02
 0.11259248676E+02 0.10995982734E+02 0.10786397124E+02 0.10631165866E+02 0.10534712570E+02
 0.10501881472E+02 0.10534712570E+02 0.10631165866E+02 0.10786397124E+02 0.10995982734E+02
 0.11259248676E+02 0.11580027818E+02 0.11962729288E+02 0.12403888573E+02 0.12882384018E+02
 0.13353632897E+02 0.13752892829E+02 0.14009507036E+02 0.14067513352E+02 0.13894270341E+02
 0.13497743516E+02 0.12939092550E+02 0.12319892354E+02 0.11759709516E+02 0.11370258464E+02
 0.12342077165E+02 0.12432598082E+02 0.12683934155E+02 0.13040171218E+02 0.13422923222E+02
 0.13750150745E+02 0.13956495113E+02 0.14009507036E+02 0.13908742395E+02 0.13679955963E+02
 0.13369907675E+02 0.13029812536E+02 0.12700290487E+02 0.12403888573E+02 0.12146446346E+02
 0.11924408170E+02 0.11733290286E+02 0.11573187149E+02 0.11449629312E+02 0.11370811686E+02
 0.11343652824E+02 0.11370811686E+02 0.11449629312E+02 0.11573187149E+02 0.11733290286E+02
 0.11924408170E+02 0.12146446346E+02 0.12403888573E+02 0.12700290487E+02 0.13029812536E+02
 0.13369907675E+02 0.13679955963E+02 0.13908742395E+02 0.14009507036E+02 0.13956495113E+02
 0.13750150745E+02 0.13422923222E+02 0.13040171218E+02 0.12683934155E+02 0.12432598082E+02
 0.12794398667E+02 0.12849072292E+02 0.13000259837E+02 0.13212541149E+02 0.13436788087E+02
 0.13623389903E+02 0.13735272634E+02 0.13752892829E+02 0.13679955963E+02 0.13540581743E+02
 0.13368200425E+02 0.13192409917E+02 0.13029812536E+02 0.12882384018E+02 0.12742882257E+02
 0.12603521669E+02 0.12463160294E+02 0.12329751620E+02 0.12217758702E+02 0.12142792233E+02
 0.12116402673E+02 0.12142792233E+02 0.12217758702E+02 0.12329751620E+02 0.12463160294E+02
 0.12603521669E+02 0.12742882257E+02 0.12882384018E+02 0.13029812536E+02 0.13192409917E+02
 0.13368200425E+02 0.13540581743E+02 0.13679955963E+02 0.13752892829E+02 0.13735272634E+02
 0.13623389903E+02 0.13436788087E+02 0.13212541149E+02 0.13000259837E+02 0.12849072292E+02
 0.12661412010E+02 0.12695349808E+02 0.12789928530E+02 0.12925293068E+02 0.13073661588E+02
 0.13206205627E+02 0.13301817915E+02 0.13353632897E+02 0.13369907675E+02 0.13368200425E+02
 0.13365346121E+02 0.13368200425E+02 0.13369907675E+02 0.13353632897E+02 0.13301817915E+02
 0.13206205627E+02 0.13073661588E+02 0.12925293068E+02 0.12789928530E+02 0.12695349808E+02
 0.12661412010E+02 0.12695349808E+02 0.12789928530E+02 0.12925293068E+02 0.13073661588E+02
 0.13206205627E+02 0.13301817915E+02 0.13353632897E+02 0.13369907675E+02 0.13368200425E+02
 0.13365346121E+02 0.13368200425E+02 0.13369907675E+02 0.13353632897E+02 0.13301817915E+02
 0.13206205627E+02 0.13073661588E+02 0.12925293068E+02 0.12789928530E+02 0.12695349808E+02
 0.12116402673E+02 0.12142792233E+02 0.12217758702E+02 0.12329751620E+02 0.12463160294E+02
 0.12603521669E+02 0.12742882257E+02 0.12882384018E+02 0.13029812536E+02 0.13192409917E+02
 0.13368200425E+02 0.13540581743E+02 0.13679955963E+02 0.13752892829E+02 0.13735272634E+02
 0.13623389903E+02 0.13436788087E+02 0.13212541149E+02 0.13000259837E+02 0.12849072292E+02
 0.12794398667E+02 0.12849072292E+02 0.13000259837E+02 0.13212541149E+02 0.13436788087E+02
 0.13623389903E+02 0.13735272634E+02 0.13752892829E+02 0.13679955963E+02 0.13540581743E+02
 0.13368200425E+02 0.13192409917E+02 0.13029812536E+02 0.12882384018E+02 0.12742882257E+02
 0.12603521669E+02 0.12463160294E+02 0.12329751620E+02 0.12217758702E+02 0.12142792233E+02
 0.11343652824E+02 0.11370811686E+02 0.11449629312E+02 0.11573187149E+02 0.11733290286E+02
 0.11924408170E+02 0.12146446346E+02 0.12403888573E+02 0.12700290487E+02 0.13029812536E+02
 0.13369907675E+02 0.13679955963E+02 0.13908742395E+02 0.14009507036E+02 0.13956495113E+02
 0.13750150745E+02 0.13422923222E+02 0.13040171218E+02 0.12683934155E+02 0.12432598082E+02
 0.12342077165E+02 0.12432598082E+02 0.12683934155E+02 0.13040171218E+02 0.13422923222E+02
 0.13750150745E+02 0.13956495113E+02 0.14009507036E+02 0.13908742395E+02 0.13679955963E+02
 0.13369907675E+02 0.13029812536E+02 0.12700290487E+02 0.12403888573E+02 0.12146446346E+02
 0.11924408170E+02 0.11733290286E+02 0.11573187149E+02 0.11449629312E+02 0.11370811686E+02
 0.10501881472E+02 0.10534712570E+02 0.10631165866E+02 0.10786397124E+02 0.10995982734E+02
 0.11259248676E+02 0.11580027818E+02 0.11962729288E+02 0.12403888573E+02 0.12882384018E+02
 0.13353632897E+02 0.13752892829E+02 0.14009507036E+02 0.14067513352E+02 0.13894270341E+02
 0.13497743516E+02 0.12939092550E+02 0.12319892354E+02 0.11759709516E+02 0.11370258464E+02
 0.11230867596E+02 0.11370258464E+02 0.11759709516E+02 0.12319892354E+02 0.12939092550E+02
 0.13497743516E+02 0.13894270341E+02 0.14067513352E+02 0.14009507036E+02 0.13752892829E+02
 0.13353632897E+02 0.12882384018E+02 0.12403888573E+02 0.11962729288E+02 0.11580027818E+02
 0.11259248676E+02 0.10995982734E+02 0.10786397124E+02 0.10631165866E+02 0.10534712570E+02
 0.97068034252E+01 0.97471342524E+01 0.98661997449E+01 0.10059809166E+02 0.10325212201E+02
 0.10664114943E+02 0.11081730885E+02 0.11580027818E+02 0.12146446346E+02 0.12742882257E+02
 0.13301817915E+02 0.13735272634E+02 0.13956495113E+02 0.13894270341E+02 0.13512782857E+02
 0.12843608782E+02 0.11982682397E+02 0.11070647269E+02 0.10265640603E+02 0.97132162052E+01
 0.95165930830E+01 0.97132162052E+01 0.10265640603E+02 0.11070647269E+02 0.11982682397E+02
 0.12843608782E+02 0.13512782857E+02 0.13894270341E+02 0.13956495113E+02 0.13735272634E+02
 0.13301817915E+02 0.12742882257E+02 0.12146446346E+02 0.11580027818E+02 0.11081730885E+02
 0.10664114943E+02 0.10325212201E+02 0.10059809166E+02 0.98661997449E+01 0.97471342524E+01
 0.90204077933E+01 0.90679524883E+01 0.92086014048E+01 0.94383154762E+01 0.97551787679E+01
 0.10162077458E+02 0.10664114943E+02 0.11259248676E+02 0.11924408170E+02 0.12603521669E+02
 0.13206205627E+02 0.13623389903E+02 0.13750150745E+02 0.13497743516E+02 0.12843608782E+02
 0.11849011545E+02 0.10646897449E+02 0.94161413628E+01 0.83509220038E+01 0.76277663025E+01
 0.73715976176E+01 0.76277663025E+01 0.83509220038E+01 0.94161413628E+01 0.10646897449E+02
 0.11849011545E+02 0.12843608782E+02 0.13497743516E+02 0.13750150745E+02 0.13623389903E+02
 0.13206205627E+02 0.12603521669E+02 0.11924408170E+02 0.11259248676E+02 0.10664114943E+02
 0.10162077458E+02 0.97551787679E+01 0.94383154762E+01 0.92086014048E+01 0.90679524883E+01
 0.84633436575E+01 0.85167291331E+01 0.86748754937E+01 0.89339563617E+01 0.92928332909E+01
 0.97551787679E+01 0.10325212201E+02 0.10995982734E+02 0.11733290286E+02 0.12463160294E+02
 0.13073661588E+02 0.13436788087E+02 0.13422923222E+02 0.12939092550E+02 0.11982682397E+02
 0.10646897449E+02 0.91007545203E+01 0.75580820904E+01 0.62441718240E+01 0.53606721198E+01
 0.50491104827E+01 0.53606721198E+01 0.62441718240E+01 0.75580820904E+01 0.91007545203E+01
 0.10646897449E+02 0.11982682397E+02 0.12939092550E+02 0.13422923222E+02 0.13436788087E+02
 0.13073661588E+02 0.12463160294E+02 0.11733290286E+02 0.10995982734E+02 0.10325212201E+02
 0.97551787679E+01 0.92928332909E+01 0.89339563617E+01 0.86748754937E+01 0.85167291331E+01
 0.80347667690E+01 0.80923336986E+01 0.82630978808E+01 0.85436892562E+01 0.89339563617E+01
 0.94383154762E+01 0.10059809166E+02 0.10786397124E+02 0.11573187149E+02 0.12329751620E+02
 0.12925293068E+02 0.13212541149E+02 0.13040171218E+02 0.12319892354E+02 0.11070647269E+02
 0.94161413628E+01 0.75580820904E+01 0.57406367215E+01 0.42139062585E+01 0.31966525671E+01
 0.28395921743E+01 0.31966525671E+01 0.42139062585E+01 0.57406367215E+01 0.75580820904E+01
 0.94161413628E+01 0.11070647269E+02 0.12319892354E+02 0.13040171218E+02 0.13212541149E+02
 0.12925293068E+02 0.12329751620E+02 0.11573187149E+02 0.10786397124E+02 0.10059809166E+02
 0.94383154762E+01 0.89339563617E+01 0.85436892562E+01 0.82630978808E+01 0.80923336986E+01
 0.77288686787E+01 0.77891410430E+01 0.79681505602E+01 0.82630978808E+01 0.86748754937E+01
 0.92086014048E+01 0.98661997449E+01 0.10631165866E+02 0.11449629312E+02 0.12217758702E+02
 0.12789928530E+02 0.13000259837E+02 0.12683934155E+02 0.11759709516E+02 0.10265640603E+02
 0.83509220038E+01 0.62441718240E+01 0.42139062585E+01 0.25280346287E+01 0.14142203044E+01
 0.10250586684E+01 0.14142203044E+01 0.25280346287E+01 0.42139062585E+01 0.62441718240E+01
 0.83509220038E+01 0.10265640603E+02 0.11759709516E+02 0.12683934155E+02 0.13000259837E+02
 0.12789928530E+02 0.12217758702E+02 0.11449629312E+02 0.10631165866E+02 0.98661997449E+01
 0.92086014048E+01 0.86748754937E+01 0.82630978808E+01 0.79681505602E+01 0.77891410430E+01
 0.75436863286E+01 0.76054749671E+01 0.77891410430E+01 0.80923336986E+01 0.85167291331E+01
 0.90679524883E+01 0.97471342524E+01 0.10534712570E+02 0.11370811686E+02 0.12142792233E+02
 0.12695349808E+02 0.12849072292E+02 0.12432598082E+02 0.11370258464E+02 0.97132162052E+01
 0.76277663025E+01 0.53606721198E+01 0.31966525671E+01 0.14142203044E+01 0.24404433421E+00
 -.16335266333E+00 0.24404433421E+00 0.14142203044E+01 0.31966525671E+01 0.53606721198E+01
 0.76277663025E+01 0.97132162052E+01 0.11370258464E+02 0.12432598082E+02 0.12849072292E+02
 0.12695349808E+02 0.12142792233E+02 0.11370811686E+02 0.10534712570E+02 0.97471342524E+01
 0.90679524883E+01 0.85167291331E+01 0.80923336986E+01 0.77891410430E+01 0.76054749671E+01
 0.74814055514E+01 0.75436863286E+01 0.77288686787E+01 0.80347667690E+01 0.84633436575E+01
 0.90204077933E+01 0.97068034252E+01 0.10501881472E+02 0.11343652824E+02 0.12116402673E+02
 0.12661412010E+02 0.12794398667E+02 0.12342077165E+02 0.11230867596E+02 0.95165930830E+01
 0.73715976176E+01 0.50491104827E+01 0.28395921743E+01 0.10250586684E+01 -.16335266333E+00
 -.57653174223E+00 -.16335266333E+00 0.10250586684E+01 0.28395921743E+01 0.50491104827E+01
 0.73715976176E+01 0.95165930830E+01 0.11230867596E+02 0.12342077165E+02 0.12794398667E+02
 0.12661412010E+02 0.12116402673E+02 0.11343652824E+02 0.10501881472E+02 0.97068034252E+01
 0.90204077933E+01 0.84633436575E+01 0.80347667690E+01 0.77288686787E+01 0.75436863286E+01
 0.75436863286E+01 0.76054749671E+01 0.77891410430E+01 0.80923336986E+01 0.85167291331E+01
 0.90679524883E+01 0.97471342524E+01 0.10534712570E+02 0.11370811686E+02 0.12142792233E+02
 0.12695349808E+02 0.12849072292E+02 0.12432598082E+02 0.11370258464E+02 0.97132162052E+01
 0.76277663025E+01 0.53606721198E+01 0.31966525671E+01 0.14142203044E+01 0.24404433421E+00
 -.16335266333E+00 0.24404433421E+00 0.14142203044E+01 0.31966525671E+01 0.53606721198E+01
 0.76277663025E+01 0.97132162052E+01 0.11370258464E+02 0.12432598082E+02 0.12849072292E+02
 0.12695349808E+02 0.12142792233E+02 0.11370811686E+02 0.10534712570E+02 0.97471342524E+01
 0.90679524883E+01 0.85167291331E+01 0.80923336986E+01 0.77891410430E+01 0.76054749671E+01
 0.77288686787E+01 0.77891410430E+01 0.79681505602E+01 0.82630978808E+01 0.86748754937E+01
 0.92086014048E+01 0.98661997449E+01 0.10631165866E+02 0.11449629312E+02 0.12217758702E+02
 0.12789928530E+02 0.13000259837E+02 0.12683934155E+02 0.11759709516E+02 0.10265640603E+02
 0.83509220038E+01 0.62441718240E+01 0.42139062585E+01 0.25280346287E+01 0.14142203044E+01
 0.10250586684E+01 0.14142203044E+01 0.25280346287E+01 0.42139062585E+01 0.62441718240E+01
 0.83509220038E+01 0.10265640603E+02 0.11759709516E+02 0.12683934155E+02 0.13000259837E+02
 0.12789928530E+02 0.12217758702E+02 0.11449629312E+02 0.10631165866E+02 0.98661997449E+01
 0.92086014048E+01 0.86748754937E+01 0.82630978808E+01 0.79681505602E+01 0.77891410430E+01
 0.80347667690E+01 0.80923336986E+01 0.82630978808E+01 0.85436892562E+01 0.89339563617E+01
 0.94383154762E+01 0.10059809166E+02 0.10786397124E+02 0.11573187149E+02 0.12329751620E+02
 0.12925293068E+02 0.13212541149E+02 0.13040171218E+02 0.12319892354E+02 0.11070647269E+02
 0.94161413628E+01 0.75580820904E+01 0.57406367215E+01 0.42139062585E+01 0.31966525671E+01
 0.28395921743E+01 0.31966525671E+01 0.42139062585E+01 0.57406367215E+01 0.75580820904E+01
 0.94161413628E+01 0.11070647269E+02 0.12319892354E+02 0.13040171218E+02 0.13212541149E+02
 0.12925293068E+02 0.12329751620E+02 0.11573187149E+02 0.10786397124E+02 0.10059809166E+02
 0.94383154762E+01 0.89339563617E+01 0.85436892562E+01 0.82630978808E+01 0.80923336986E+01
 0.84633436575E+01 0.85167291331E+01 0.86748754937E+01 0.89339563617E+01 0.92928332909E+01
 0.97551787679E+01 0.10325212201E+02 0.10995982734E+02 0.11733290286E+02 0.12463160294E+02
 0.13073661588E+02 0.13436788087E+02 0.13422923222E+02 0.12939092550E+02 0.11982682397E+02
 0.10646897449E+02 0.91007545203E+01 0.75580820904E+01 0.62441718240E+01 0.53606721198E+01
 0.50491104827E+01 0.53606721198E+01 0.62441718240E+01 0.75580820904E+01 0.91007545203E+01
 0.10646897449E+02 0.11982682397E+02 0.12939092550E+02 0.13422923222E+02 0.13436788087E+02
 0.13073661588E+02 0.12463160294E+02 0.11733290286E+02 0.10995982734E+02 0.10325212201E+02
 0.97551787679E+01 0.92928332909E+01 0.89339563617E+01 0.86748754937E+01 0.85167291331E+01
 0.90204077933E+01 0.90679524883E+01 0.92086014048E+01 0.94383154762E+01 0.97551787679E+01
 0.10162077458E+02 0.10664114943E+02 0.11259248676E+02 0.11924408170E+02 0.12603521669E+02
 0.13206205627E+02 0.13623389903E+02 0.13750150745E+02 0.13497743516E+02 0.12843608782E+02
 0.11849011545E+02 0.10646897449E+02 0.94161413628E+01 0.83509220038E+01 0.76277663025E+01
 0.73715976176E+01 0.76277663025E+01 0.83509220038E+01 0.94161413628E+01 0.10646897449E+02
 0.11849011545E+02 0.12843608782E+02 0.13497743516E+02 0.13750150745E+02 0.13623389903E+02
 0.13206205627E+02 0.12603521669E+02 0.11924408170E+02 0.11259248676E+02 0.10664114943E+02
 0.10162077458E+02 0.97551787679E+01 0.94383154762E+01 0.92086014048E+01 0.90679524883E+01
 0.97068034252E+01 0.97471342524E+01 0.98661997449E+01 0.10059809166E+02 0.10325212201E+02
 0.10664114943E+02 0.11081730885E+02 0.11580027818E+02 0.12146446346E+02 0.12742882257E+02
 0.13301817915E+02 0.13735272634E+02 0.13956495113E+02 0.13894270341E+02 0.13512782857E+02
 0.12843608782E+02 0.11982682397E+02 0.11070647269E+02 0.10265640603E+02 0.97132162052E+01
 0.95165930830E+01 0.97132162052E+01 0.10265640603E+02 0.11070647269E+02 0.11982682397E+02
 0.12843608782E+02 0.13512782857E+02 0.13894270341E+02 0.13956495113E+02 0.13735272634E+02
 0.13301817915E+02 0.12742882257E+02 0.12146446346E+02 0.11580027818E+02 0.11081730885E+02
 0.10664114943E+02 0.10325212201E+02 0.10059809166E+02 0.98661997449E+01 0.97471342524E+01
 0.10501881472E+02 0.10534712570E+02 0.10631165866E+02 0.10786397124E+02 0.10995982734E+02
 0.11259248676E+02 0.11580027818E+02 0.11962729288E+02 0.12403888573E+02 0.12882384018E+02
 0.13353632897E+02 0.13752892829E+02 0.14009507036E+02 0.14067513352E+02 0.13894270341E+02
 0.13497743516E+02 0.12939092550E+02 0.12319892354E+02 0.11759709516E+02 0.11370258464E+02
 0.11230867596E+02 0.11370258464E+02 0.11759709516E+02 0.12319892354E+02 0.12939092550E+02
 0.13497743516E+02 0.13894270341E+02 0.14067513352E+02 0.14009507036E+02 0.13752892829E+02
 0.13353632897E+02 0.12882384018E+02 0.12403888573E+02 0.11962729288E+02 0.11580027818E+02
 0.11259248676E+02 0.10995982734E+02 0.10786397124E+02 0.10631165866E+02 0.10534712570E+02
 0.11343652824E+02 0.11370811686E+02 0.11449629312E+02 0.11573187149E+02 0.11733290286E+02
 0.11924408170E+02 0.12146446346E+02 0.12403888573E+02 0.12700290487E+02 0.13029812536E+02
 0.13369907675E+02 0.13679955963E+02 0.13908742395E+02 0.14009507036E+02 0.13956495113E+02
 0.13750150745E+02 0.13422923222E+02 0.13040171218E+02 0.12683934155E+02 0.12432598082E+02
 0.12342077165E+02 0.12432598082E+02 0.12683934155E+02 0.13040171218E+02 0.13422923222E+02
 0.13750150745E+02 0.13956495113E+02 0.14009507036E+02 0.13908742395E+02 0.13679955963E+02
 0.13369907675E+02 0.13029812536E+02 0.12700290487E+02 0.12403888573E+02 0.12146446346E+02
 0.11924408170E+02 0.11733290286E+02 0.11573187149E+02 0.11449629312E+02 0.11370811686E+02
 0.12116402673E+02 0.12142792233E+02 0.12217758702E+02 0.12329751620E+02 0.12463160294E+02
 0.12603521669E+02 0.12742882257E+02 0.12882384018E+02 0.13029812536E+02 0.13192409917E+02
 0.13368200425E+02 0.13540581743E+02 0.13679955963E+02 0.13752892829E+02 0.13735272634E+02
 0.13623389903E+02 0.13436788087E+02 0.13212541149E+02 0.13000259837E+02 0.12849072292E+02
 0.12794398667E+02 0.12849072292E+02 0.13000259837E+02 0.13212541149E+02 0.13436788087E+02
 0.13623389903E+02 0.13735272634E+02 0.13752892829E+02 0.13679955963E+02 0.13540581743E+02
 0.13368200425E+02 0.13192409917E+02 0.13029812536E+02 0.12882384018E+02 0.12742882257E+02
 0.12603521669E+02 0.12463160294E+02 0.12329751620E+02 0.12217758702E+02 0.12142792233E+02
 0.12661412010E+02 0.12695349808E+02 0.12789928530E+02 0.12925293068E+02 0.13073661588E+02
 0.13206205627E+02 0.13301817915E+02 0.13353632897E+02 0.13369907675E+02 0.13368200425E+02
 0.13365346121E+02 0.13368200425E+02 0.13369907675E+02 0.13353632897E+02 0.13301817915E+02
 0.13206205627E+02 0.13073661588E+02 0.12925293068E+02 0.12789928530E+02 0.12695349808E+02
 0.12661412010E+02 0.12695349808E+02 0.12789928530E+02 0.12925293068E+02 0.13073661588E+02
 0.13206205627E+02 0.13301817915E+02 0.13353632897E+02 0.13369907675E+02 0.13368200425E+02
 0.13365346121E+02 0.13368200425E+02 0.13369907675E+02 0.13353632897E+02 0.13301817915E+02
 0.13206205627E+02 0.13073661588E+02 0.12925293068E+02 0.12789928530E+02 0.12695349808E+02
 0.12794398667E+02 0.12849072292E+02 0.13000259837E+02 0.13212541149E+02 0.13436788087E+02
 0.13623389903E+02 0.13735272634E+02 0.13752892829E+02 0.13679955963E+02 0.13540581743E+02
 0.13368200425E+02 0.13192409917E+02 0.13029812536E+02 0.12882384018E+02 0.12742882257E+02
 0.12603521669E+02 0.12463160294E+02 0.12329751620E+02 0.12217758702E+02 0.12142792233E+02
 0.12116402673E+02 0.12142792233E+02 0.12217758702E+02 0.12329751620E+02 0.12463160294E+02
 0.12603521669E+02 0.12742882257E+02 0.12882384018E+02 0.13029812536E+02 0.13192409917E+02
 0.13368200425E+02 0.13540581743E+02 0.13679955963E+02 0.13752892829E+02 0.13735272634E+02
 0.13623389903E+02 0.13436788087E+02 0.13212541149E+02 0.13000259837E+02 0.12849072292E+02
 0.12342077165E+02 0.12432598082E+02 0.12683934155E+02 0.13040171218E+02 0.13422923222E+02
 0.13750150745E+02 0.13956495113E+02 0.14009507036E+02 0.13908742395E+02 0.13679955963E+02
 0.13369907675E+02 0.13029812536E+02 0.12700290487E+02 0.12403888573E+02 0.12146446346E+02
 0.11924408170E+02 0.11733290286E+02 0.11573187149E+02 0.11449629312E+02 0.11370811686E+02
 0.11343652824E+02 0.11370811686E+02 0.11449629312E+02 0.11573187149E+02 0.11733290286E+02
 0.11924408170E+02 0.12146446346E+02 0.12403888573E+02 0.12700290487E+02 0.13029812536E+02
 0.13369907675E+02 0.13679955963E+02 0.13908742395E+02 0.14009507036E+02 0.13956495113E+02
 0.13750150745E+02 0.13422923222E+02 0.13040171218E+02 0.12683934155E+02 0.12432598082E+02
 0.11230867596E+02 0.11370258464E+02 0.11759709516E+02 0.12319892354E+02 0.12939092550E+02
 0.13497743516E+02 0.13894270341E+02 0.14067513352E+02 0.14009507036E+02 0.13752892829E+02
 0.13353632897E+02 0.12882384018E+02 0.12403888573E+02 0.11962729288E+02 0.11580027818E+02
 0.11259248676E+02 0.10995982734E+02 0.10786397124E+02 0.10631165866E+02 0.10534712570E+02
 0.10501881472E+02 0.10534712570E+02 0.10631165866E+02 0.10786397124E+02 0.10995982734E+02
 0.11259248676E+02 0.11580027818E+02 0.11962729288E+02 0.12403888573E+02 0.12882384018E+02
 0.13353632897E+02 0.13752892829E+02 0.14009507036E+02 0.14067513352E+02 0.13894270341E+02
 0.13497743516E+02 0.12939092550E+02 0.12319892354E+02 0.11759709516E+02 0.11370258464E+02
 0.95165930830E+01 0.97132162052E+01 0.10265640603E+02 0.11070647269E+02 0.11982682397E+02
 0.12843608782E+02 0.13512782857E+02 0.13894270341E+02 0.13956495113E+02 0.13735272634E+02
 0.13301817915E+02 0.12742882257E+02 0.12146446346E+02 0.11580027818E+02 0.11081730885E+02
 0.10664114943E+02 0.10325212201E+02 0.10059809166E+02 0.98661997449E+01 0.97471342524E+01
 0.97068034252E+01 0.97471342524E+01 0.98661997449E+01 0.10059809166E+02 0.10325212201E+02
 0.10664114943E+02 0.11081730885E+02 0.11580027818E+02 0.12146446346E+02 0.12742882257E+02
 0.13301817915E+02 0.13735272634E+02 0.13956495113E+02 0.13894270341E+02 0.13512782857E+02
 0.12843608782E+02 0.11982682397E+02 0.11070647269E+02 0.10265640603E+02 0.97132162052E+01
 0.73715976176E+01 0.76277663025E+01 0.83509220038E+01 0.94161413628E+01 0.10646897449E+02
 0.11849011545E+02 0.12843608782E+02 0.13497743516E+02 0.13750150745E+02 0.13623389903E+02
 0.13206205627E+02 0.12603521669E+02 0.11924408170E+02 0.11259248676E+02 0.10664114943E+02
 0.10162077458E+02 0.97551787679E+01 0.94383154762E+01 0.92086014048E+01 0.90679524883E+01
 0.90204077933E+01 0.90679524883E+01 0.92086014048E+01 0.94383154762E+01 0.97551787679E+01
 0.10162077458E+02 0.10664114943E+02 0.11259248676E+02 0.11924408170E+02 0.12603521669E+02
 0.13206205627E+02 0.13623389903E+02 0.13750150745E+02 0.13497743516E+02 0.12843608782E+02
 0.11849011545E+02 0.10646897449E+02 0.94161413628E+01 0.83509220038E+01 0.76277663025E+01
 0.50491104827E+01 0.53606721198E+01 0.62441718240E+01 0.75580820904E+01 0.91007545203E+01
 0.10646897449E+02 0.11982682397E+02 0.12939092550E+02 0.13422923222E+02 0.13436788087E+02
 0.13073661588E+02 0.12463160294E+02 0.11733290286E+02 0.10995982734E+02 0.10325212201E+02
 0.97551787679E+01 0.92928332909E+01 0.89339563617E+01 0.86748754937E+01 0.85167291331E+01
 0.84633436575E+01 0.85167291331E+01 0.86748754937E+01 0.89339563617E+01 0.92928332909E+01
 0.97551787679E+01 0.10325212201E+02 0.10995982734E+02 0.11733290286E+02 0.12463160294E+02
 0.13073661588E+02 0.13436788087E+02 0.13422923222E+02 0.12939092550E+02 0.11982682397E+02
 0.10646897449E+02 0.91007545203E+01 0.75580820904E+01 0.62441718240E+01 0.53606721198E+01
 0.28395921743E+01 0.31966525671E+01 0.42139062585E+01 0.57406367215E+01 0.75580820904E+01
 0.94161413628E+01 0.11070647269E+02 0.12319892354E+02 0.13040171218E+02 0.13212541149E+02
 0.12925293068E+02 0.12329751620E+02 0.11573187149E+02 0.10786397124E+02 0.10059809166E+02
 0.94383154762E+01 0.89339563617E+01 0.85436892562E+01 0.82630978808E+01 0.80923336986E+01
 0.80347667690E+01 0.80923336986E+01 0.82630978808E+01 0.85436892562E+01 0.89339563617E+01
 0.94383154762E+01 0.10059809166E+02 0.10786397124E+02 0.11573187149E+02 0.12329751620E+02
 0.12925293068E+02 0.13212541149E+02 0.13040171218E+02 0.12319892354E+02 0.11070647269E+02
 0.94161413628E+01 0.75580820904E+01 0.57406367215E+01 0.42139062585E+01 0.31966525671E+01
 0.10250586684E+01 0.14142203044E+01 0.25280346287E+01 0.42139062585E+01 0.62441718240E+01
 0.83509220038E+01 0.10265640603E+02 0.11759709516E+02 0.12683934155E+02 0.13000259837E+02
 0.12789928530E+02 0.12217758702E+02 0.11449629312E+02 0.10631165866E+02 0.98661997449E+01
 0.92086014048E+01 0.86748754937E+01 0.82630978808E+01 0.79681505602E+01 0.77891410430E+01
 0.77288686787E+01 0.77891410430E+01 0.79681505602E+01 0.82630978808E+01 0.86748754937E+01
 0.92086014048E+01 0.98661997449E+01 0.10631165866E+02 0.11449629312E+02 0.12217758702E+02
 0.12789928530E+02 0.13000259837E+02 0.12683934155E+02 0.11759709516E+02 0.10265640603E+02
 0.83509220038E+01 0.62441718240E+01 0.42139062585E+01 0.25280346287E+01 0.14142203044E+01
 -.16335266333E+00 0.24404433421E+00 0.14142203044E+01 0.31966525671E+01 0.53606721198E+01
 0.76277663025E+01 0.97132162052E+01 0.11370258464E+02 0.12432598082E+02 0.12849072292E+02
 0.12695349808E+02 0.12142792233E+02 0.11370811686E+02 0.10534712570E+02 0.97471342524E+01
 0.90679524883E+01 0.85167291331E+01 0.80923336986E+01 0.77891410430E+01 0.76054749671E+01
 0.75436863286E+01 0.76054749671E+01 0.77891410430E+01 0.80923336986E+01 0.85167291331E+01
 0.90679524883E+01 0.97471342524E+01 0.10534712570E+02 0.11370811686E+02 0.12142792233E+02
 0.12695349808E+02 0.12849072292E+02 0.12432598082E+02 0.11370258464E+02 0.97132162052E+01
 0.76277663025E+01 0.53606721198E+01 0.31966525671E+01 0.14142203044E+01 0.24404433421E+00
 -.16335266333E+00 0.24404433421E+00 0.14142203044E+01 0.31966525671E+01 0.53606721198E+01
 0.76277663025E+01 0.97132162052E+01 0.11370258464E+02 0.12432598082E+02 0.12849072292E+02
 0.12695349808E+02 0.12142792233E+02 0.11370811686E+02 0.10534712570E+02 0.97471342524E+01
 0.90679524883E+01 0.85167291331E+01 0.80923336986E+01 0.77891410430E+01 0.76054749671E+01
 0.75436863286E+01 0.76054749671E+01 0.77891410430E+01 0.80923336986E+01 0.85167291331E+01