       N       E                     dE             d eps       ncg     rms          rms(c)
DAV:   1    -0.104533605309E+02   -0.10453E+02   -0.47070E+03  2688   0.456E+02
DAV:   2    -0.220094313688E+02   -0.11556E+02   -0.11452E+02  3216   0.416E+01
DAV:   3    -0.220512510266E+02   -0.41820E-01   -0.41812E-01  3312   0.314E+00
DAV:   4    -0.220513574570E+02   -0.10643E-03   -0.10643E-03  3960   0.104E-01
DAV:   5    -0.220513576893E+02   -0.23226E-06   -0.23231E-06  3432   0.254E-03    0.192E+01
DAV:   6    -0.190890071889E+02    0.29624E+01   -0.13015E+01  2736   0.281E+01    0.279E+00
DAV:   7    -0.189985021808E+02    0.90505E-01   -0.11759E-01  3648   0.218E+00    0.174E+00
DAV:   8    -0.189649375184E+02    0.33565E-01   -0.94443E-03  2856   0.539E-01    0.242E-01
DAV:   9    -0.189644179656E+02    0.51955E-03   -0.86627E-04  3816   0.105E-01    0.658E-02
DAV:  10    -0.189643572652E+02    0.60700E-04   -0.20402E-05  1632   0.257E-02
   1 F= -.18964357E+02 E0= -.18963215E+02  d E =-.228474E-02
