       N       E                     dE             d eps       ncg     rms          rms(c)
DAV:   1    -0.746952516509E+01   -0.74695E+01   -0.54204E+03  2688   0.540E+02
DAV:   2    -0.219925247896E+02   -0.14523E+02   -0.14452E+02  3144   0.470E+01
DAV:   3    -0.220519716238E+02   -0.59447E-01   -0.59434E-01  3408   0.387E+00
DAV:   4    -0.220521027822E+02   -0.13116E-03   -0.13116E-03  3816   0.115E-01
DAV:   5    -0.220521030787E+02   -0.29645E-06   -0.29659E-06  3696   0.332E-03    0.192E+01
DAV:   6    -0.190887064774E+02    0.29634E+01   -0.13018E+01  2736   0.283E+01    0.279E+00
DAV:   7    -0.189982352318E+02    0.90471E-01   -0.11933E-01  3792   0.220E+00    0.174E+00
DAV:   8    -0.189646260326E+02    0.33609E-01   -0.95823E-03  2880   0.555E-01    0.243E-01
DAV:   9    -0.189641097143E+02    0.51632E-03   -0.89051E-04  3768   0.109E-01    0.663E-02
DAV:  10    -0.189640472511E+02    0.62463E-04   -0.21718E-05  1776   0.267E-02
   1 F= -.18964047E+02 E0= -.18962905E+02  d E =-.228549E-02
