       N       E                     dE             d eps       ncg     rms          rms(c)
DAV:   1    -0.901620868602E+01   -0.90162E+01   -0.50696E+03  2688   0.491E+02
DAV:   2    -0.219985115390E+02   -0.12982E+02   -0.12899E+02  3144   0.443E+01
DAV:   3    -0.220516749622E+02   -0.53163E-01   -0.53151E-01  3384   0.361E+00
DAV:   4    -0.220518018737E+02   -0.12691E-03   -0.12691E-03  3840   0.116E-01
DAV:   5    -0.220518020399E+02   -0.16614E-06   -0.16617E-06  3696   0.231E-03    0.192E+01
DAV:   6    -0.190884844021E+02    0.29633E+01   -0.13018E+01  2736   0.282E+01    0.279E+00
DAV:   7    -0.189979753506E+02    0.90509E-01   -0.11840E-01  3648   0.219E+00    0.174E+00
DAV:   8    -0.189643791568E+02    0.33596E-01   -0.95338E-03  2880   0.547E-01    0.242E-01
DAV:   9    -0.189638622694E+02    0.51689E-03   -0.87586E-04  3720   0.107E-01    0.661E-02
DAV:  10    -0.189638005959E+02    0.61673E-04   -0.21136E-05  1728   0.263E-02
   1 F= -.18963801E+02 E0= -.18962658E+02  d E =-.189638E+02
       N       E                     dE             d eps       ncg     rms          rms(c)
DAV:   1    -0.191182704734E+02   -0.15441E+00   -0.78978E+00  2688   0.234E+01    0.354E+00
DAV:   2    -0.189553307397E+02    0.16294E+00   -0.94562E-01  3024   0.675E+00    0.491E-01
DAV:   3    -0.189460353731E+02    0.92954E-02   -0.43395E-03  3312   0.511E-01    0.358E-01
DAV:   4    -0.189422236897E+02    0.38117E-02   -0.42868E-03  2832   0.315E-01    0.392E-02
DAV:   5    -0.189421898338E+02    0.33856E-04   -0.27145E-05  2520   0.412E-02
   2 F= -.18942190E+02 E0= -.18941007E+02  d E =0.216108E-01
       N       E                     dE             d eps       ncg     rms          rms(c)
DAV:   1    -0.190444182912E+02   -0.10219E+00   -0.31138E+00  2688   0.143E+01    0.244E+00
DAV:   2    -0.189799177550E+02    0.64501E-01   -0.33957E-01  2976   0.420E+00    0.288E-01
DAV:   3    -0.189762494858E+02    0.36683E-02   -0.11929E-03  3360   0.191E-01    0.170E-01
DAV:   4    -0.189748030649E+02    0.14464E-02   -0.15000E-03  2856   0.185E-01    0.296E-02
DAV:   5    -0.189747992388E+02    0.38262E-05   -0.20908E-06  1608   0.774E-03
   3 F= -.18974799E+02 E0= -.18973643E+02  d E =-.109986E-01
