unknown system                          
           1
     2.812697    0.000000    0.000000
     0.000000    2.812697    0.000000
     0.000000    0.000000    2.812697
   Cr
     2
Direct configuration=     1
   0.00000000  0.00000000  0.00000000
   0.50000000  0.50000000  0.50000000
unknown system                          
           1
     2.875461   -0.000000    0.000000
    -0.000000    2.875461    0.000000
    -0.000000   -0.000000    2.875461
   Cr
     2
Direct configuration=     2
   0.00000000  0.00000000  0.00000000
   0.50000000  0.50000000  0.50000000
unknown system                          
           1
     2.835529   -0.000000    0.000000
    -0.000000    2.835529    0.000000
    -0.000000   -0.000000    2.835529
   Cr
     2
Direct configuration=     3
   0.00000000  0.00000000  0.00000000
   0.50000000  0.50000000  0.50000000
