       N       E                     dE             d eps       ncg     rms          rms(c)
DAV:   1     0.334058742810E+03    0.33406E+03   -0.27070E+04   960   0.967E+02
DAV:   2    -0.858564159506E+01   -0.34264E+03   -0.33897E+03  1176   0.259E+02
DAV:   3    -0.200607609504E+02   -0.11475E+02   -0.11466E+02  1104   0.530E+01
DAV:   4    -0.201843450241E+02   -0.12358E+00   -0.12358E+00  1584   0.410E+00
DAV:   5    -0.201847039585E+02   -0.35893E-03   -0.35893E-03  1176   0.192E-01    0.100E+01
DAV:   6    -0.192899705296E+02    0.89473E+00   -0.26485E+00  1032   0.902E+00    0.817E+00
DAV:   7    -0.192335647647E+02    0.56406E-01   -0.78774E-01  1032   0.286E+00    0.313E+00
DAV:   8    -0.192344729182E+02   -0.90815E-03   -0.51861E-02  1128   0.164E+00    0.943E-01
DAV:   9    -0.192355900123E+02   -0.11171E-02   -0.60356E-03  1224   0.492E-01    0.198E-01
DAV:  10    -0.192356685465E+02   -0.78534E-04   -0.86014E-04  1200   0.170E-01    0.926E-02
DAV:  11    -0.192358637562E+02   -0.19521E-03   -0.53750E-04  1176   0.116E-01    0.448E-02
DAV:  12    -0.192358567288E+02    0.70274E-05   -0.45720E-05  1344   0.444E-02
   1 F= -.19235857E+02 E0= -.19235857E+02  d E =-.192359E+02
