       N       E                     dE             d eps       ncg     rms          rms(c)
DAV:   1     0.336535613609E+03    0.33654E+03   -0.27367E+04  1920   0.974E+02
DAV:   2    -0.872532330216E+01   -0.34526E+03   -0.34150E+03  2424   0.261E+02
DAV:   3    -0.200242806048E+02   -0.11299E+02   -0.11292E+02  2232   0.525E+01
DAV:   4    -0.201444409437E+02   -0.12016E+00   -0.12016E+00  3216   0.401E+00
DAV:   5    -0.201447752282E+02   -0.33428E-03   -0.33428E-03  2256   0.181E-01    0.106E+01
DAV:   6    -0.192657007520E+02    0.87907E+00   -0.25654E+00  2160   0.923E+00    0.859E+00
DAV:   7    -0.192084583832E+02    0.57242E-01   -0.79725E-01  2232   0.295E+00    0.313E+00
DAV:   8    -0.192086871595E+02   -0.22878E-03   -0.57404E-02  2136   0.174E+00    0.951E-01
DAV:   9    -0.192096960332E+02   -0.10089E-02   -0.63422E-03  2568   0.505E-01    0.194E-01
DAV:  10    -0.192097853481E+02   -0.89315E-04   -0.76020E-04  2232   0.165E-01
   1 F= -.19209785E+02 E0= -.19209785E+02  d E =-.200377E-10
