       N       E                     dE             d eps       ncg     rms          rms(c)
DAV:   1    -0.123309711746E+02   -0.12331E+02   -0.43970E+03  2712   0.410E+02
DAV:   2    -0.220231086097E+02   -0.96921E+01   -0.96153E+01  3288   0.384E+01
DAV:   3    -0.220524726785E+02   -0.29364E-01   -0.29357E-01  3384   0.252E+00
DAV:   4    -0.220525445217E+02   -0.71843E-04   -0.71842E-04  3840   0.840E-02
DAV:   5    -0.220525446184E+02   -0.96712E-07   -0.97471E-07  3552   0.170E-03    0.192E+01
DAV:   6    -0.190943683649E+02    0.29582E+01   -0.12992E+01  2784   0.280E+01    0.279E+00
DAV:   7    -0.190037350409E+02    0.90633E-01   -0.11719E-01  3552   0.217E+00    0.173E+00
DAV:   8    -0.189701980052E+02    0.33537E-01   -0.93412E-03  2832   0.534E-01    0.242E-01
DAV:   9    -0.189696702690E+02    0.52774E-03   -0.85829E-04  3720   0.103E-01    0.649E-02
DAV:  10    -0.189696115304E+02    0.58739E-04   -0.19299E-05  1680   0.246E-02
   1 F= -.18969612E+02 E0= -.18968470E+02  d E =-.228244E-02
