       N       E                     dE             d eps       ncg     rms          rms(c)
DAV:   1    -0.868612253132E+01   -0.86861E+01   -0.50000E+03  1680   0.486E+02
DAV:   2    -0.219952050536E+02   -0.13309E+02   -0.13236E+02  2016   0.450E+01
DAV:   3    -0.220410908861E+02   -0.45886E-01   -0.45873E-01  2112   0.332E+00
DAV:   4    -0.220411996513E+02   -0.10877E-03   -0.10876E-03  2328   0.955E-02
DAV:   5    -0.220412002415E+02   -0.59020E-06   -0.59056E-06  2328   0.407E-03    0.192E+01
DAV:   6    -0.190756915009E+02    0.29655E+01   -0.13010E+01  1848   0.282E+01    0.283E+00
DAV:   7    -0.189854394649E+02    0.90252E-01   -0.13522E-01  2184   0.236E+00    0.172E+00
DAV:   8    -0.189549173342E+02    0.30522E-01   -0.18325E-02  1800   0.110E+00    0.379E-01
DAV:   9    -0.189528831996E+02    0.20341E-02   -0.52518E-03  2280   0.382E-01    0.795E-02
DAV:  10    -0.189528075410E+02    0.75659E-04   -0.11898E-05  1008   0.233E-02
   1 F= -.18952808E+02 E0= -.18951160E+02  d E =-.329536E-02
