       N       E                     dE             d eps       ncg     rms          rms(c)
DAV:   1    -0.748717892393E+01   -0.74872E+01   -0.40083E+03  7944   0.308E+02
DAV:   2    -0.149903689309E+02   -0.75032E+01   -0.74134E+01 11664   0.264E+01
DAV:   3    -0.150199562367E+02   -0.29587E-01   -0.29584E-01 10632   0.206E+00
DAV:   4    -0.150199984090E+02   -0.42172E-04   -0.42172E-04 13416   0.694E-02
DAV:   5    -0.150199984135E+02   -0.45179E-08   -0.53850E-08 10800   0.679E-04    0.284E+00
DAV:   6    -0.149652352216E+02    0.54763E-01   -0.53277E-03 11496   0.227E-01    0.165E+00
DAV:   7    -0.149252888613E+02    0.39946E-01   -0.15499E-02 10440   0.362E-01    0.285E-01
DAV:   8    -0.149251647944E+02    0.12407E-03   -0.80640E-05 13920   0.336E-02    0.643E-02
DAV:   9    -0.149251563531E+02    0.84413E-05   -0.32398E-06 10704   0.568E-03
   1 F= -.14925156E+02 E0= -.14924535E+02  d E =-.149252E+02
