 vasp.6.3.0 20Jan22 (build Feb 10 2022 15:15:41) complex                        
  
 executed on             LinuxIFC date 2023.09.09  16:12:33
 running on   24 total cores
 distrk:  each k-point on   24 cores,    1 groups
 distr:  one band on NCORE=   1 cores,   24 groups


--------------------------------------------------------------------------------------------------------


 INCAR:
   ENCUT = 400
   ISMEAR = 0
   SIGMA = 0.05
   IBRION = 2
   ISIF = 4
   NSW = 100
   EDIFF = 1E-05
   EDIFFG = -0.01

 POTCAR:    PAW_PBE Al 04Jan2001                  
 -----------------------------------------------------------------------------
|                                                                             |
|           W    W    AA    RRRRR   N    N  II  N    N   GGGG   !!!           |
|           W    W   A  A   R    R  NN   N  II  NN   N  G    G  !!!           |
|           W    W  A    A  R    R  N N  N  II  N N  N  G       !!!           |
|           W WW W  AAAAAA  RRRRR   N  N N  II  N  N N  G  GGG   !            |
|           WW  WW  A    A  R   R   N   NN  II  N   NN  G    G                |
|           W    W  A    A  R    R  N    N  II  N    N   GGGG   !!!           |
|                                                                             |
|     For optimal performance we recommend to set                             |
|       NCORE = 2 up to number-of-cores-per-socket                            |
|     NCORE specifies how many cores store one orbital (NPAR=cpu/NCORE).      |
|     This setting can greatly improve the performance of VASP for DFT.       |
|     The default, NCORE=1 might be grossly inefficient on modern             |
|     multi-core architectures or massively parallel machines. Do your        |
|     own testing! More info at https://www.vasp.at/wiki/index.php/NCORE      |
|     Unfortunately you need to use the default for GW and RPA                |
|     calculations (for HF NCORE is supported but not extensively tested      |
|     yet).                                                                   |
|                                                                             |
 -----------------------------------------------------------------------------

 POTCAR:    PAW_PBE Al 04Jan2001                  
   SHA256 =  17880443556af62b473fe41b62a467bd001ad55d2cabe504a3f22e34d4e9db96 Al/POTCAR             
   COPYR  = (c) Copyright 04Jan2001 Georg Kresse                                                    
   COPYR  = This file is part of the software VASP. Any use, copying, and all other rights are regul
   COPYR  = If you do not have a valid VASP license, you may not use, copy or distribute this file. 
   VRHFIN =Al: s2p1                                                                                 
   LEXCH  = PE                                                                                      
   EATOM  =    53.5387 eV,    3.9350 Ry                                                             
                                                                                                    
   TITEL  = PAW_PBE Al 04Jan2001                                                                    
   LULTRA =        F    use ultrasoft PP ?                                                          
   IUNSCR =        1    unscreen: 0-lin 1-nonlin 2-no                                               
   RPACOR =    1.500    partial core radius                                                         
   POMASS =   26.981; ZVAL   =    3.000    mass and valenz                                          
   RCORE  =    1.900    outmost cutoff radius                                                       
   RWIGS  =    2.650; RWIGS  =    1.402    wigner-seitz radius (au A)                               
   ENMAX  =  240.300; ENMIN  =  180.225 eV                                                          
   ICORE  =        2    local potential                                                             
   LCOR   =        T    correct aug charges                                                         
   LPAW   =        T    paw PP                                                                      
   EAUG   =  291.052                                                                                
   DEXC   =    0.000                                                                                
   RMAX   =    1.939    core radius for proj-oper                                                   
   RAUG   =    1.300    factor for augmentation sphere                                              
   RDEP   =    1.966    radius for radial grids                                                     
   RDEPT  =    1.856    core radius for aug-charge                                                  
                                                                                                    
   Atomic configuration                                                                             
    6 entries                                                                                       
     n  l   j            E        occ.                                                              
     1  0  0.50     -1511.1048   2.0000                                                             
     2  0  0.50      -108.1629   2.0000                                                             
     2  1  1.50       -69.6402   6.0000                                                             
     3  0  0.50        -7.7528   2.0000                                                             
     3  1  1.50        -2.7121   1.0000                                                             
     3  2  2.50        -2.7212   0.0000                                                             
   Description                                                                                      
     l       E           TYP  RCUT    TYP  RCUT                                                     
     0     -7.7528455     23  1.900                                                                 
     0     -3.3096929     23  1.900                                                                 
     1     -2.7120682     23  1.900                                                                 
     1     13.6058260     23  1.900                                                                 
     2     -2.7211652      7  1.900                                                                 
  local pseudopotential read in
  partial core-charges read in
  partial kinetic energy density read in
  atomic valenz-charges read in
  non local Contribution for L=           0  read in
    real space projection operators read in
  non local Contribution for L=           0  read in
    real space projection operators read in
  non local Contribution for L=           1  read in
    real space projection operators read in
  non local Contribution for L=           1  read in
    real space projection operators read in
    PAW grid and wavefunctions read in
 
   number of l-projection  operators is LMAX  =           4
   number of lm-projection operators is LMMAX =           8
 
  PAW_PBE Al 04Jan2001                  :
 energy of atom  1       EATOM=  -53.5387
 kinetic energy error for atom=    0.0005 (will be added to EATOM!!)
 
 
 POSCAR: Al4
  positions in direct lattice
  No initial velocities read in
 exchange correlation table for  LEXCH =        8
   RHO(1)=    0.500       N(1)  =     2000
   RHO(2)=  100.500       N(2)  =     4000
 


--------------------------------------------------------------------------------------------------------


 ion  position               nearest neighbor table
   1  0.000  0.000  0.000-   2 2.80   3 2.80   4 2.80   2 2.80   3 2.80   2 2.80   4 2.80   2 2.80
                             3 2.80   4 2.80   3 2.80   4 2.80
   2  0.000  0.500  0.500-   1 2.80   3 2.80   4 2.80   1 2.80   4 2.80   1 2.80   3 2.80   1 2.80
                             3 2.80   4 2.80   4 2.80   3 2.80
   3  0.500  0.000  0.500-   1 2.80   2 2.80   4 2.80   1 2.80   4 2.80   2 2.80   4 2.80   4 2.80
                             1 2.80   2 2.80   1 2.80   2 2.80
   4  0.500  0.500  0.000-   1 2.80   2 2.80   3 2.80   2 2.80   3 2.80   1 2.80   3 2.80   3 2.80
                             1 2.80   2 2.80   2 2.80   1 2.80
 
  LATTYP: Found a simple cubic cell.
 ALAT       =     3.9576449057
  
  Lattice vectors:
  
 A1 = (   3.9576449057,   0.0000000000,   0.0000000000)
 A2 = (   0.0000000000,   3.9576449057,   0.0000000000)
 A3 = (   0.0000000000,   0.0000000000,   3.9576449057)


Analysis of symmetry for initial positions (statically):
=====================================================================
 Subroutine PRICEL returns following result:
 
  LATTYP: Found a face centered cubic cell.
 ALAT       =     3.9576449057
  
  Lattice vectors:
  
 A1 = (   1.9788224528,  -1.9788224528,   0.0000000000)
 A2 = (   1.9788224528,   0.0000000000,   1.9788224528)
 A3 = (   0.0000000000,  -1.9788224528,   1.9788224528)
 
   4 primitive cells build up your supercell.
 

 Routine SETGRP: Setting up the symmetry group for a 
 simple cubic supercell.


 Subroutine GETGRP returns: Found 48 space group operations
 (whereof 48 operations were pure point group operations)
 out of a pool of 48 trial point group operations.


The static configuration has the point symmetry O_h .


Analysis of symmetry for dynamics (positions and initial velocities):
=====================================================================
 Subroutine PRICEL returns following result:
 
  LATTYP: Found a face centered cubic cell.
 ALAT       =     3.9576449057
  
  Lattice vectors:
  
 A1 = (   1.9788224528,  -1.9788224528,   0.0000000000)
 A2 = (   1.9788224528,   0.0000000000,   1.9788224528)
 A3 = (   0.0000000000,  -1.9788224528,   1.9788224528)
 
   4 primitive cells build up your supercell.
 

 Routine SETGRP: Setting up the symmetry group for a 
 simple cubic supercell.


 Subroutine GETGRP returns: Found 48 space group operations
 (whereof 48 operations were pure point group operations)
 out of a pool of 48 trial point group operations.


The dynamic configuration has the point symmetry O_h .


 Subroutine INISYM returns: Found 48 space group operations
 (whereof 48 operations are pure point group operations),
 and found     4 'primitive' translations


----------------------------------------------------------------------------------------

                                     Primitive cell                                     

  volume of cell :      15.4971

  direct lattice vectors                    reciprocal lattice vectors
     1.978822453 -1.978822453  0.000000000     0.252675524 -0.252675524 -0.252675524
     1.978822453  0.000000000  1.978822453     0.252675524  0.252675524  0.252675524
     0.000000000 -1.978822453  1.978822453    -0.252675524 -0.252675524  0.252675524

  length of vectors
     2.798477550  2.798477550  2.798477550     0.437646845  0.437646845  0.437646845

  position of ions in fractional coordinates (direct lattice)
     0.000000000  0.000000000  0.000000000

  ion indices of the primitive-cell ions
   primitive index   ion index
                 1           1

----------------------------------------------------------------------------------------

 
 
 KPOINTS: k-points                                

Automatic generation of k-mesh.
 Grid dimensions read from file:
 generate k-points for:   16   16   16

 Generating k-lattice:

  Cartesian coordinates                     Fractional coordinates (reciprocal lattice)
     0.015792220  0.000000000  0.000000000     0.062500000  0.000000000  0.000000000
     0.000000000  0.015792220  0.000000000     0.000000000  0.062500000  0.000000000
     0.000000000  0.000000000  0.015792220     0.000000000  0.000000000  0.062500000

  Length of vectors
     0.015792220  0.015792220  0.015792220

  Shift w.r.t. Gamma in fractional coordinates (k-lattice)
     0.000000000  0.000000000  0.000000000

 
 Subroutine IBZKPT returns following result:
 ===========================================
 
 Found    165 irreducible k-points:
 
 Following reciprocal coordinates:
            Coordinates               Weight
  0.000000  0.000000  0.000000      1.000000
  0.062500  0.000000  0.000000      6.000000
  0.125000  0.000000  0.000000      6.000000
  0.187500  0.000000  0.000000      6.000000
  0.250000  0.000000  0.000000      6.000000
  0.312500  0.000000  0.000000      6.000000
  0.375000  0.000000  0.000000      6.000000
  0.437500  0.000000  0.000000      6.000000
  0.500000  0.000000  0.000000      3.000000
  0.062500  0.062500  0.000000     12.000000
  0.125000  0.062500  0.000000     24.000000
  0.187500  0.062500  0.000000     24.000000
  0.250000  0.062500  0.000000     24.000000
  0.312500  0.062500  0.000000     24.000000
  0.375000  0.062500  0.000000     24.000000
  0.437500  0.062500  0.000000     24.000000
  0.500000  0.062500  0.000000     12.000000
  0.125000  0.125000  0.000000     12.000000
  0.187500  0.125000  0.000000     24.000000
  0.250000  0.125000  0.000000     24.000000
  0.312500  0.125000  0.000000     24.000000
  0.375000  0.125000  0.000000     24.000000
  0.437500  0.125000  0.000000     24.000000
  0.500000  0.125000  0.000000     12.000000
  0.187500  0.187500  0.000000     12.000000
  0.250000  0.187500  0.000000     24.000000
  0.312500  0.187500  0.000000     24.000000
  0.375000  0.187500  0.000000     24.000000
  0.437500  0.187500  0.000000     24.000000
  0.500000  0.187500  0.000000     12.000000
  0.250000  0.250000  0.000000     12.000000
  0.312500  0.250000  0.000000     24.000000
  0.375000  0.250000  0.000000     24.000000
  0.437500  0.250000  0.000000     24.000000
  0.500000  0.250000  0.000000     12.000000
  0.312500  0.312500  0.000000     12.000000
  0.375000  0.312500  0.000000     24.000000
  0.437500  0.312500  0.000000     24.000000
  0.500000  0.312500  0.000000     12.000000
  0.375000  0.375000  0.000000     12.000000
  0.437500  0.375000  0.000000     24.000000
  0.500000  0.375000  0.000000     12.000000
  0.437500  0.437500  0.000000     12.000000
  0.500000  0.437500  0.000000     12.000000
  0.500000  0.500000  0.000000      3.000000
  0.062500  0.062500  0.062500      8.000000
  0.125000  0.062500  0.062500     24.000000
  0.187500  0.062500  0.062500     24.000000
  0.250000  0.062500  0.062500     24.000000
  0.312500  0.062500  0.062500     24.000000
  0.375000  0.062500  0.062500     24.000000
  0.437500  0.062500  0.062500     24.000000
  0.500000  0.062500  0.062500     12.000000
  0.125000  0.125000  0.062500     24.000000
  0.187500  0.125000  0.062500     48.000000
  0.250000  0.125000  0.062500     48.000000
  0.312500  0.125000  0.062500     48.000000
  0.375000  0.125000  0.062500     48.000000
  0.437500  0.125000  0.062500     48.000000
  0.500000  0.125000  0.062500     24.000000
  0.187500  0.187500  0.062500     24.000000
  0.250000  0.187500  0.062500     48.000000
  0.312500  0.187500  0.062500     48.000000
  0.375000  0.187500  0.062500     48.000000
  0.437500  0.187500  0.062500     48.000000
  0.500000  0.187500  0.062500     24.000000
  0.250000  0.250000  0.062500     24.000000
  0.312500  0.250000  0.062500     48.000000
  0.375000  0.250000  0.062500     48.000000
  0.437500  0.250000  0.062500     48.000000
  0.500000  0.250000  0.062500     24.000000
  0.312500  0.312500  0.062500     24.000000
  0.375000  0.312500  0.062500     48.000000
  0.437500  0.312500  0.062500     48.000000
  0.500000  0.312500  0.062500     24.000000
  0.375000  0.375000  0.062500     24.000000
  0.437500  0.375000  0.062500     48.000000
  0.500000  0.375000  0.062500     24.000000
  0.437500  0.437500  0.062500     24.000000
  0.500000  0.437500  0.062500     24.000000
  0.500000  0.500000  0.062500      6.000000
  0.125000  0.125000  0.125000      8.000000
  0.187500  0.125000  0.125000     24.000000
  0.250000  0.125000  0.125000     24.000000
  0.312500  0.125000  0.125000     24.000000
  0.375000  0.125000  0.125000     24.000000
  0.437500  0.125000  0.125000     24.000000
  0.500000  0.125000  0.125000     12.000000
  0.187500  0.187500  0.125000     24.000000
  0.250000  0.187500  0.125000     48.000000
  0.312500  0.187500  0.125000     48.000000
  0.375000  0.187500  0.125000     48.000000
  0.437500  0.187500  0.125000     48.000000
  0.500000  0.187500  0.125000     24.000000
  0.250000  0.250000  0.125000     24.000000
  0.312500  0.250000  0.125000     48.000000
  0.375000  0.250000  0.125000     48.000000
  0.437500  0.250000  0.125000     48.000000
  0.500000  0.250000  0.125000     24.000000
  0.312500  0.312500  0.125000     24.000000
  0.375000  0.312500  0.125000     48.000000
  0.437500  0.312500  0.125000     48.000000
  0.500000  0.312500  0.125000     24.000000
  0.375000  0.375000  0.125000     24.000000
  0.437500  0.375000  0.125000     48.000000
  0.500000  0.375000  0.125000     24.000000
  0.437500  0.437500  0.125000     24.000000
  0.500000  0.437500  0.125000     24.000000
  0.500000  0.500000  0.125000      6.000000
  0.187500  0.187500  0.187500      8.000000
  0.250000  0.187500  0.187500     24.000000
  0.312500  0.187500  0.187500     24.000000
  0.375000  0.187500  0.187500     24.000000
  0.437500  0.187500  0.187500     24.000000
  0.500000  0.187500  0.187500     12.000000
  0.250000  0.250000  0.187500     24.000000
  0.312500  0.250000  0.187500     48.000000
  0.375000  0.250000  0.187500     48.000000
  0.437500  0.250000  0.187500     48.000000
  0.500000  0.250000  0.187500     24.000000
  0.312500  0.312500  0.187500     24.000000
  0.375000  0.312500  0.187500     48.000000
  0.437500  0.312500  0.187500     48.000000
  0.500000  0.312500  0.187500     24.000000
  0.375000  0.375000  0.187500     24.000000
  0.437500  0.375000  0.187500     48.000000
  0.500000  0.375000  0.187500     24.000000
  0.437500  0.437500  0.187500     24.000000
  0.500000  0.437500  0.187500     24.000000
  0.500000  0.500000  0.187500      6.000000
  0.250000  0.250000  0.250000      8.000000
  0.312500  0.250000  0.250000     24.000000
  0.375000  0.250000  0.250000     24.000000
  0.437500  0.250000  0.250000     24.000000
  0.500000  0.250000  0.250000     12.000000
  0.312500  0.312500  0.250000     24.000000
  0.375000  0.312500  0.250000     48.000000
  0.437500  0.312500  0.250000     48.000000
  0.500000  0.312500  0.250000     24.000000
  0.375000  0.375000  0.250000     24.000000
  0.437500  0.375000  0.250000     48.000000
  0.500000  0.375000  0.250000     24.000000
  0.437500  0.437500  0.250000     24.000000
  0.500000  0.437500  0.250000     24.000000
  0.500000  0.500000  0.250000      6.000000
  0.312500  0.312500  0.312500      8.000000
  0.375000  0.312500  0.312500     24.000000
  0.437500  0.312500  0.312500     24.000000
  0.500000  0.312500  0.312500     12.000000
  0.375000  0.375000  0.312500     24.000000
  0.437500  0.375000  0.312500     48.000000
  0.500000  0.375000  0.312500     24.000000
  0.437500  0.437500  0.312500     24.000000
  0.500000  0.437500  0.312500     24.000000
  0.500000  0.500000  0.312500      6.000000
  0.375000  0.375000  0.375000      8.000000
  0.437500  0.375000  0.375000     24.000000
  0.500000  0.375000  0.375000     12.000000
  0.437500  0.437500  0.375000     24.000000
  0.500000  0.437500  0.375000     24.000000
  0.500000  0.500000  0.375000      6.000000
  0.437500  0.437500  0.437500      8.000000
  0.500000  0.437500  0.437500     12.000000
  0.500000  0.500000  0.437500      6.000000
  0.500000  0.500000  0.500000      1.000000
 
 Following cartesian coordinates:
            Coordinates               Weight
  0.000000  0.000000  0.000000      1.000000
  0.015476  0.000000  0.000000      6.000000
  0.030953  0.000000  0.000000      6.000000
  0.046429  0.000000  0.000000      6.000000
  0.061906  0.000000  0.000000      6.000000
  0.077382  0.000000  0.000000      6.000000
  0.092858  0.000000  0.000000      6.000000
  0.108335  0.000000  0.000000      6.000000
  0.123811  0.000000  0.000000      3.000000
  0.015476  0.015476  0.000000     12.000000
  0.030953  0.015476  0.000000     24.000000
  0.046429  0.015476  0.000000     24.000000
  0.061906  0.015476  0.000000     24.000000
  0.077382  0.015476  0.000000     24.000000
  0.092858  0.015476  0.000000     24.000000
  0.108335  0.015476  0.000000     24.000000
  0.123811  0.015476  0.000000     12.000000
  0.030953  0.030953  0.000000     12.000000
  0.046429  0.030953  0.000000     24.000000
  0.061906  0.030953  0.000000     24.000000
  0.077382  0.030953  0.000000     24.000000
  0.092858  0.030953  0.000000     24.000000
  0.108335  0.030953  0.000000     24.000000
  0.123811  0.030953  0.000000     12.000000
  0.046429  0.046429  0.000000     12.000000
  0.061906  0.046429  0.000000     24.000000
  0.077382  0.046429  0.000000     24.000000
  0.092858  0.046429  0.000000     24.000000
  0.108335  0.046429  0.000000     24.000000
  0.123811  0.046429  0.000000     12.000000
  0.061906  0.061906  0.000000     12.000000
  0.077382  0.061906  0.000000     24.000000
  0.092858  0.061906  0.000000     24.000000
  0.108335  0.061906  0.000000     24.000000
  0.123811  0.061906  0.000000     12.000000
  0.077382  0.077382  0.000000     12.000000
  0.092858  0.077382  0.000000     24.000000
  0.108335  0.077382  0.000000     24.000000
  0.123811  0.077382  0.000000     12.000000
  0.092858  0.092858  0.000000     12.000000
  0.108335  0.092858  0.000000     24.000000
  0.123811  0.092858  0.000000     12.000000
  0.108335  0.108335  0.000000     12.000000
  0.123811  0.108335  0.000000     12.000000
  0.123811  0.123811  0.000000      3.000000
  0.015476  0.015476  0.015476      8.000000
  0.030953  0.015476  0.015476     24.000000
  0.046429  0.015476  0.015476     24.000000
  0.061906  0.015476  0.015476     24.000000
  0.077382  0.015476  0.015476     24.000000
  0.092858  0.015476  0.015476     24.000000
  0.108335  0.015476  0.015476     24.000000
  0.123811  0.015476  0.015476     12.000000
  0.030953  0.030953  0.015476     24.000000
  0.046429  0.030953  0.015476     48.000000
  0.061906  0.030953  0.015476     48.000000
  0.077382  0.030953  0.015476     48.000000
  0.092858  0.030953  0.015476     48.000000
  0.108335  0.030953  0.015476     48.000000
  0.123811  0.030953  0.015476     24.000000
  0.046429  0.046429  0.015476     24.000000
  0.061906  0.046429  0.015476     48.000000
  0.077382  0.046429  0.015476     48.000000
  0.092858  0.046429  0.015476     48.000000
  0.108335  0.046429  0.015476     48.000000
  0.123811  0.046429  0.015476     24.000000
  0.061906  0.061906  0.015476     24.000000
  0.077382  0.061906  0.015476     48.000000
  0.092858  0.061906  0.015476     48.000000
  0.108335  0.061906  0.015476     48.000000
  0.123811  0.061906  0.015476     24.000000
  0.077382  0.077382  0.015476     24.000000
  0.092858  0.077382  0.015476     48.000000
  0.108335  0.077382  0.015476     48.000000
  0.123811  0.077382  0.015476     24.000000
  0.092858  0.092858  0.015476     24.000000
  0.108335  0.092858  0.015476     48.000000
  0.123811  0.092858  0.015476     24.000000
  0.108335  0.108335  0.015476     24.000000
  0.123811  0.108335  0.015476     24.000000
  0.123811  0.123811  0.015476      6.000000
  0.030953  0.030953  0.030953      8.000000
  0.046429  0.030953  0.030953     24.000000
  0.061906  0.030953  0.030953     24.000000
  0.077382  0.030953  0.030953     24.000000
  0.092858  0.030953  0.030953     24.000000
  0.108335  0.030953  0.030953     24.000000
  0.123811  0.030953  0.030953     12.000000
  0.046429  0.046429  0.030953     24.000000
  0.061906  0.046429  0.030953     48.000000
  0.077382  0.046429  0.030953     48.000000
  0.092858  0.046429  0.030953     48.000000
  0.108335  0.046429  0.030953     48.000000
  0.123811  0.046429  0.030953     24.000000
  0.061906  0.061906  0.030953     24.000000
  0.077382  0.061906  0.030953     48.000000
  0.092858  0.061906  0.030953     48.000000
  0.108335  0.061906  0.030953     48.000000
  0.123811  0.061906  0.030953     24.000000
  0.077382  0.077382  0.030953     24.000000
  0.092858  0.077382  0.030953     48.000000
  0.108335  0.077382  0.030953     48.000000
  0.123811  0.077382  0.030953     24.000000
  0.092858  0.092858  0.030953     24.000000
  0.108335  0.092858  0.030953     48.000000
  0.123811  0.092858  0.030953     24.000000
  0.108335  0.108335  0.030953     24.000000
  0.123811  0.108335  0.030953     24.000000
  0.123811  0.123811  0.030953      6.000000
  0.046429  0.046429  0.046429      8.000000
  0.061906  0.046429  0.046429     24.000000
  0.077382  0.046429  0.046429     24.000000
  0.092858  0.046429  0.046429     24.000000
  0.108335  0.046429  0.046429     24.000000
  0.123811  0.046429  0.046429     12.000000
  0.061906  0.061906  0.046429     24.000000
  0.077382  0.061906  0.046429     48.000000
  0.092858  0.061906  0.046429     48.000000
  0.108335  0.061906  0.046429     48.000000
  0.123811  0.061906  0.046429     24.000000
  0.077382  0.077382  0.046429     24.000000
  0.092858  0.077382  0.046429     48.000000
  0.108335  0.077382  0.046429     48.000000
  0.123811  0.077382  0.046429     24.000000
  0.092858  0.092858  0.046429     24.000000
  0.108335  0.092858  0.046429     48.000000
  0.123811  0.092858  0.046429     24.000000
  0.108335  0.108335  0.046429     24.000000
  0.123811  0.108335  0.046429     24.000000
  0.123811  0.123811  0.046429      6.000000
  0.061906  0.061906  0.061906      8.000000
  0.077382  0.061906  0.061906     24.000000
  0.092858  0.061906  0.061906     24.000000
  0.108335  0.061906  0.061906     24.000000
  0.123811  0.061906  0.061906     12.000000
  0.077382  0.077382  0.061906     24.000000
  0.092858  0.077382  0.061906     48.000000
  0.108335  0.077382  0.061906     48.000000
  0.123811  0.077382  0.061906     24.000000
  0.092858  0.092858  0.061906     24.000000
  0.108335  0.092858  0.061906     48.000000
  0.123811  0.092858  0.061906     24.000000
  0.108335  0.108335  0.061906     24.000000
  0.123811  0.108335  0.061906     24.000000
  0.123811  0.123811  0.061906      6.000000
  0.077382  0.077382  0.077382      8.000000
  0.092858  0.077382  0.077382     24.000000
  0.108335  0.077382  0.077382     24.000000
  0.123811  0.077382  0.077382     12.000000
  0.092858  0.092858  0.077382     24.000000
  0.108335  0.092858  0.077382     48.000000
  0.123811  0.092858  0.077382     24.000000
  0.108335  0.108335  0.077382     24.000000
  0.123811  0.108335  0.077382     24.000000
  0.123811  0.123811  0.077382      6.000000
  0.092858  0.092858  0.092858      8.000000
  0.108335  0.092858  0.092858     24.000000
  0.123811  0.092858  0.092858     12.000000
  0.108335  0.108335  0.092858     24.000000
  0.123811  0.108335  0.092858     24.000000
  0.123811  0.123811  0.092858      6.000000
  0.108335  0.108335  0.108335      8.000000
  0.123811  0.108335  0.108335     12.000000
  0.123811  0.123811  0.108335      6.000000
  0.123811  0.123811  0.123811      1.000000
 


--------------------------------------------------------------------------------------------------------




 Dimension of arrays:
   k-points           NKPTS =    165   k-points in BZ     NKDIM =    165   number of bands    NBANDS=     24
   number of dos      NEDOS =    301   number of ions     NIONS =      4
   non local maximal  LDIM  =      4   non local SUM 2l+1 LMDIM =      8
   total plane-waves  NPLWV =   8000
   max r-space proj   IRMAX =      1   max aug-charges    IRDMAX=   5222
   dimension x,y,z NGX =    20 NGY =   20 NGZ =   20
   dimension x,y,z NGXF=    40 NGYF=   40 NGZF=   40
   support grid    NGXF=    40 NGYF=   40 NGZF=   40
   ions per type =               4
   NGX,Y,Z   is equivalent  to a cutoff of   8.40,  8.40,  8.40 a.u.
   NGXF,Y,Z  is equivalent  to a cutoff of  16.80, 16.80, 16.80 a.u.

 SYSTEM =  unknown system                          
 POSCAR =  Al4                                     

 Startparameter for this run:
   NWRITE =      2    write-flag & timer
   PREC   = normal    normal or accurate (medium, high low for compatibility)
   ISTART =      0    job   : 0-new  1-cont  2-samecut
   ICHARG =      2    charge: 1-file 2-atom 10-const
   ISPIN  =      1    spin polarized calculation?
   LNONCOLLINEAR =      F non collinear calculations
   LSORBIT =      F    spin-orbit coupling
   INIWAV =      1    electr: 0-lowe 1-rand  2-diag
   LASPH  =      F    aspherical Exc in radial PAW
 Electronic Relaxation 1
   ENCUT  =  400.0 eV  29.40 Ry    5.42 a.u.   6.45  6.45  6.45*2*pi/ulx,y,z
   ENINI  =  400.0     initial cutoff
   ENAUG  =  291.1 eV  augmentation charge cutoff
   NELM   =     60;   NELMIN=  2; NELMDL= -5     # of ELM steps 
   EDIFF  = 0.1E-04   stopping-criterion for ELM
   LREAL  =      F    real-space projection
   NLSPLINE    = F    spline interpolate recip. space projectors
   LCOMPAT=      F    compatible to vasp.4.4
   GGA_COMPAT  = T    GGA compatible to vasp.4.4-vasp.4.6
   LMAXPAW     = -100 max onsite density
   LMAXMIX     =    2 max onsite mixed and CHGCAR
   VOSKOWN=      0    Vosko Wilk Nusair interpolation
   ROPT   =    0.00000
 Ionic relaxation
   EDIFFG = -.1E-01   stopping-criterion for IOM
   NSW    =    100    number of steps for IOM
   NBLOCK =      1;   KBLOCK =    100    inner block; outer block 
   IBRION =      2    ionic relax: 0-MD 1-quasi-New 2-CG
   NFREE  =      1    steps in history (QN), initial steepest desc. (CG)
   ISIF   =      4    stress and relaxation
   IWAVPR =     11    prediction:  0-non 1-charg 2-wave 3-comb
   ISYM   =      2    0-nonsym 1-usesym 2-fastsym
   LCORR  =      T    Harris-Foulkes like correction to forces

   POTIM  = 0.5000    time-step for ionic-motion
   TEIN   =    0.0    initial temperature
   TEBEG  =    0.0;   TEEND  =   0.0 temperature during run
   SMASS  =  -3.00    Nose mass-parameter (am)
   estimated Nose-frequenzy (Omega)   =  0.10E-29 period in steps = 0.13E+47 mass=  -0.358E-27a.u.
   SCALEE = 1.0000    scale energy and forces
   NPACO  =    256;   APACO  = 10.0  distance and # of slots for P.C.
   PSTRESS=    0.0 pullay stress

  Mass of Ions in am
   POMASS =  26.98
  Ionic Valenz
   ZVAL   =   3.00
  Atomic Wigner-Seitz radii
   RWIGS  =  -1.00
  virtual crystal weights 
   VCA    =   1.00
   NELECT =      12.0000    total number of electrons
   NUPDOWN=      -1.0000    fix difference up-down

 DOS related values:
   EMIN   =  10.00;   EMAX   =-10.00  energy-range for DOS
   EFERMI =   0.00
   ISMEAR =     0;   SIGMA  =   0.05  broadening in eV -4-tet -1-fermi 0-gaus

 Electronic relaxation 2 (details)
   IALGO  =     38    algorithm
   LDIAG  =      T    sub-space diagonalisation (order eigenvalues)
   LSUBROT=      F    optimize rotation matrix (better conditioning)
   TURBO    =      0    0=normal 1=particle mesh
   IRESTART =      0    0=no restart 2=restart with 2 vectors
   NREBOOT  =      0    no. of reboots
   NMIN     =      0    reboot dimension
   EREF     =   0.00    reference energy to select bands
   IMIX   =      4    mixing-type and parameters
     AMIX     =   0.40;   BMIX     =  1.00
     AMIX_MAG =   1.60;   BMIX_MAG =  1.00
     AMIN     =   0.10
     WC   =   100.;   INIMIX=   1;  MIXPRE=   1;  MAXMIX= -45

 Intra band minimization:
   WEIMIN = 0.0010     energy-eigenvalue tresh-hold
   EBREAK =  0.10E-06  absolut break condition
   DEPER  =   0.30     relativ break condition  

   TIME   =   0.40     timestep for ELM

  volume/ion in A,a.u.               =      15.50       104.58
  Fermi-wavevector in a.u.,A,eV,Ry     =   0.947033  1.789633 12.202676  0.896871
  Thomas-Fermi vector in A             =   2.075088
 
 Write flags
   LWAVE        =      T    write WAVECAR
   LDOWNSAMPLE  =      F    k-point downsampling of WAVECAR
   LCHARG       =      T    write CHGCAR
   LVTOT        =      F    write LOCPOT, total local potential
   LVHAR        =      F    write LOCPOT, Hartree potential only
   LELF         =      F    write electronic localiz. function (ELF)
   LORBIT       =      0    0 simple, 1 ext, 2 COOP (PROOUT), +10 PAW based schemes


 Dipole corrections
   LMONO  =      F    monopole corrections only (constant potential shift)
   LDIPOL =      F    correct potential (dipole corrections)
   IDIPOL =      0    1-x, 2-y, 3-z, 4-all directions 
   EPSILON=  1.0000000 bulk dielectric constant

 Exchange correlation treatment:
   GGA     =    --    GGA type
   LEXCH   =     8    internal setting for exchange type
   LIBXC   =     F    Libxc                    
   VOSKOWN =     0    Vosko Wilk Nusair interpolation
   LHFCALC =     F    Hartree Fock is set to
   LHFONE  =     F    Hartree Fock one center treatment
   AEXX    =    0.0000 exact exchange contribution

 Linear response parameters
   LEPSILON=     F    determine dielectric tensor
   LRPA    =     F    only Hartree local field effects (RPA)
   LNABLA  =     F    use nabla operator in PAW spheres
   LVEL    =     F    velocity operator in full k-point grid
   CSHIFT  =0.1000    complex shift for real part using Kramers Kronig
   OMEGAMAX=  -1.0    maximum frequency
   DEG_THRESHOLD= 0.2000000E-02 threshold for treating states as degnerate
   RTIME   =   -0.100 relaxation time in fs
  (WPLASMAI=    0.000 imaginary part of plasma frequency in eV, 0.658/RTIME)
   DFIELD  = 0.0000000 0.0000000 0.0000000 field for delta impulse in time
 
  Optional k-point grid parameters
   LKPOINTS_OPT  =     F    use optional k-point grid
   KPOINTS_OPT_MODE=     1    mode for optional k-point grid
 
 Orbital magnetization related:
   ORBITALMAG=     F  switch on orbital magnetization
   LCHIMAG   =     F  perturbation theory with respect to B field
   DQ        =  0.001000  dq finite difference perturbation B field
   LLRAUG    =     F  two centre corrections for induced B field



--------------------------------------------------------------------------------------------------------


 conjugate gradient relaxation of ions
 charge density and potential will be updated during run
 non-spin polarized calculation
 Variant of blocked Davidson
 Davidson routine will perform the subspace rotation
 perform sub-space diagonalisation
    after iterative eigenvector-optimisation
 modified Broyden-mixing scheme, WC =      100.0
 initial mixing is a Kerker type mixing with AMIX =  0.4000 and BMIX =      1.0000
 Hartree-type preconditioning will be used
 using additional bands           18
 reciprocal scheme for non local part
 use partial core corrections
 calculate Harris-corrections to forces 
   (improved forces if not selfconsistent)
 use gradient corrections 
 use of overlap-Matrix (Vanderbilt PP)
 Gauss-broadening in eV      SIGMA  =   0.05


--------------------------------------------------------------------------------------------------------


  energy-cutoff  :      400.00
  volume of cell :       61.99
      direct lattice vectors                 reciprocal lattice vectors
     3.957644906  0.000000000  0.000000000     0.252675524  0.000000000  0.000000000
     0.000000000  3.957644906  0.000000000     0.000000000  0.252675524  0.000000000
     0.000000000  0.000000000  3.957644906     0.000000000  0.000000000  0.252675524

  length of vectors
     3.957644906  3.957644906  3.957644906     0.252675524  0.252675524  0.252675524


 
 k-points in units of 2pi/SCALE and weight: k-points                                
   0.00000000  0.00000000  0.00000000       0.000
   0.01547638  0.00000000  0.00000000       0.001
   0.03095275  0.00000000  0.00000000       0.001
   0.04642913  0.00000000  0.00000000       0.001
   0.06190550  0.00000000  0.00000000       0.001
   0.07738188  0.00000000  0.00000000       0.001
   0.09285826  0.00000000  0.00000000       0.001
   0.10833463  0.00000000  0.00000000       0.001
   0.12381101  0.00000000  0.00000000       0.001
   0.01547638  0.01547638  0.00000000       0.003
   0.03095275  0.01547638  0.00000000       0.006
   0.04642913  0.01547638  0.00000000       0.006
   0.06190550  0.01547638  0.00000000       0.006
   0.07738188  0.01547638  0.00000000       0.006
   0.09285826  0.01547638  0.00000000       0.006
   0.10833463  0.01547638  0.00000000       0.006
   0.12381101  0.01547638  0.00000000       0.003
   0.03095275  0.03095275  0.00000000       0.003
   0.04642913  0.03095275  0.00000000       0.006
   0.06190550  0.03095275  0.00000000       0.006
   0.07738188  0.03095275  0.00000000       0.006
   0.09285826  0.03095275  0.00000000       0.006
   0.10833463  0.03095275  0.00000000       0.006
   0.12381101  0.03095275  0.00000000       0.003
   0.04642913  0.04642913  0.00000000       0.003
   0.06190550  0.04642913  0.00000000       0.006
   0.07738188  0.04642913  0.00000000       0.006
   0.09285826  0.04642913  0.00000000       0.006
   0.10833463  0.04642913  0.00000000       0.006
   0.12381101  0.04642913  0.00000000       0.003
   0.06190550  0.06190550  0.00000000       0.003
   0.07738188  0.06190550  0.00000000       0.006
   0.09285826  0.06190550  0.00000000       0.006
   0.10833463  0.06190550  0.00000000       0.006
   0.12381101  0.06190550  0.00000000       0.003
   0.07738188  0.07738188  0.00000000       0.003
   0.09285826  0.07738188  0.00000000       0.006
   0.10833463  0.07738188  0.00000000       0.006
   0.12381101  0.07738188  0.00000000       0.003
   0.09285826  0.09285826  0.00000000       0.003
   0.10833463  0.09285826  0.00000000       0.006
   0.12381101  0.09285826  0.00000000       0.003
   0.10833463  0.10833463  0.00000000       0.003
   0.12381101  0.10833463  0.00000000       0.003
   0.12381101  0.12381101  0.00000000       0.001
   0.01547638  0.01547638  0.01547638       0.002
   0.03095275  0.01547638  0.01547638       0.006
   0.04642913  0.01547638  0.01547638       0.006
   0.06190550  0.01547638  0.01547638       0.006
   0.07738188  0.01547638  0.01547638       0.006
   0.09285826  0.01547638  0.01547638       0.006
   0.10833463  0.01547638  0.01547638       0.006
   0.12381101  0.01547638  0.01547638       0.003
   0.03095275  0.03095275  0.01547638       0.006
   0.04642913  0.03095275  0.01547638       0.012
   0.06190550  0.03095275  0.01547638       0.012
   0.07738188  0.03095275  0.01547638       0.012
   0.09285826  0.03095275  0.01547638       0.012
   0.10833463  0.03095275  0.01547638       0.012
   0.12381101  0.03095275  0.01547638       0.006
   0.04642913  0.04642913  0.01547638       0.006
   0.06190550  0.04642913  0.01547638       0.012
   0.07738188  0.04642913  0.01547638       0.012
   0.09285826  0.04642913  0.01547638       0.012
   0.10833463  0.04642913  0.01547638       0.012
   0.12381101  0.04642913  0.01547638       0.006
   0.06190550  0.06190550  0.01547638       0.006
   0.07738188  0.06190550  0.01547638       0.012
   0.09285826  0.06190550  0.01547638       0.012
   0.10833463  0.06190550  0.01547638       0.012
   0.12381101  0.06190550  0.01547638       0.006
   0.07738188  0.07738188  0.01547638       0.006
   0.09285826  0.07738188  0.01547638       0.012
   0.10833463  0.07738188  0.01547638       0.012
   0.12381101  0.07738188  0.01547638       0.006
   0.09285826  0.09285826  0.01547638       0.006
   0.10833463  0.09285826  0.01547638       0.012
   0.12381101  0.09285826  0.01547638       0.006
   0.10833463  0.10833463  0.01547638       0.006
   0.12381101  0.10833463  0.01547638       0.006
   0.12381101  0.12381101  0.01547638       0.001
   0.03095275  0.03095275  0.03095275       0.002
   0.04642913  0.03095275  0.03095275       0.006
   0.06190550  0.03095275  0.03095275       0.006
   0.07738188  0.03095275  0.03095275       0.006
   0.09285826  0.03095275  0.03095275       0.006
   0.10833463  0.03095275  0.03095275       0.006
   0.12381101  0.03095275  0.03095275       0.003
   0.04642913  0.04642913  0.03095275       0.006
   0.06190550  0.04642913  0.03095275       0.012
   0.07738188  0.04642913  0.03095275       0.012
   0.09285826  0.04642913  0.03095275       0.012
   0.10833463  0.04642913  0.03095275       0.012
   0.12381101  0.04642913  0.03095275       0.006
   0.06190550  0.06190550  0.03095275       0.006
   0.07738188  0.06190550  0.03095275       0.012
   0.09285826  0.06190550  0.03095275       0.012
   0.10833463  0.06190550  0.03095275       0.012
   0.12381101  0.06190550  0.03095275       0.006
   0.07738188  0.07738188  0.03095275       0.006
   0.09285826  0.07738188  0.03095275       0.012
   0.10833463  0.07738188  0.03095275       0.012
   0.12381101  0.07738188  0.03095275       0.006
   0.09285826  0.09285826  0.03095275       0.006
   0.10833463  0.09285826  0.03095275       0.012
   0.12381101  0.09285826  0.03095275       0.006
   0.10833463  0.10833463  0.03095275       0.006
   0.12381101  0.10833463  0.03095275       0.006
   0.12381101  0.12381101  0.03095275       0.001
   0.04642913  0.04642913  0.04642913       0.002
   0.06190550  0.04642913  0.04642913       0.006
   0.07738188  0.04642913  0.04642913       0.006
   0.09285826  0.04642913  0.04642913       0.006
   0.10833463  0.04642913  0.04642913       0.006
   0.12381101  0.04642913  0.04642913       0.003
   0.06190550  0.06190550  0.04642913       0.006
   0.07738188  0.06190550  0.04642913       0.012
   0.09285826  0.06190550  0.04642913       0.012
   0.10833463  0.06190550  0.04642913       0.012
   0.12381101  0.06190550  0.04642913       0.006
   0.07738188  0.07738188  0.04642913       0.006
   0.09285826  0.07738188  0.04642913       0.012
   0.10833463  0.07738188  0.04642913       0.012
   0.12381101  0.07738188  0.04642913       0.006
   0.09285826  0.09285826  0.04642913       0.006
   0.10833463  0.09285826  0.04642913       0.012
   0.12381101  0.09285826  0.04642913       0.006
   0.10833463  0.10833463  0.04642913       0.006
   0.12381101  0.10833463  0.04642913       0.006
   0.12381101  0.12381101  0.04642913       0.001
   0.06190550  0.06190550  0.06190550       0.002
   0.07738188  0.06190550  0.06190550       0.006
   0.09285826  0.06190550  0.06190550       0.006
   0.10833463  0.06190550  0.06190550       0.006
   0.12381101  0.06190550  0.06190550       0.003
   0.07738188  0.07738188  0.06190550       0.006
   0.09285826  0.07738188  0.06190550       0.012
   0.10833463  0.07738188  0.06190550       0.012
   0.12381101  0.07738188  0.06190550       0.006
   0.09285826  0.09285826  0.06190550       0.006
   0.10833463  0.09285826  0.06190550       0.012
   0.12381101  0.09285826  0.06190550       0.006
   0.10833463  0.10833463  0.06190550       0.006
   0.12381101  0.10833463  0.06190550       0.006
   0.12381101  0.12381101  0.06190550       0.001
   0.07738188  0.07738188  0.07738188       0.002
   0.09285826  0.07738188  0.07738188       0.006
   0.10833463  0.07738188  0.07738188       0.006
   0.12381101  0.07738188  0.07738188       0.003
   0.09285826  0.09285826  0.07738188       0.006
   0.10833463  0.09285826  0.07738188       0.012
   0.12381101  0.09285826  0.07738188       0.006
   0.10833463  0.10833463  0.07738188       0.006
   0.12381101  0.10833463  0.07738188       0.006
   0.12381101  0.12381101  0.07738188       0.001
   0.09285826  0.09285826  0.09285826       0.002
   0.10833463  0.09285826  0.09285826       0.006
   0.12381101  0.09285826  0.09285826       0.003
   0.10833463  0.10833463  0.09285826       0.006
   0.12381101  0.10833463  0.09285826       0.006
   0.12381101  0.12381101  0.09285826       0.001
   0.10833463  0.10833463  0.10833463       0.002
   0.12381101  0.10833463  0.10833463       0.003
   0.12381101  0.12381101  0.10833463       0.001
   0.12381101  0.12381101  0.12381101       0.000
 
 k-points in reciprocal lattice and weights: k-points                                
   0.00000000  0.00000000  0.00000000       0.000
   0.06250000  0.00000000  0.00000000       0.001
   0.12500000  0.00000000  0.00000000       0.001
   0.18750000  0.00000000  0.00000000       0.001
   0.25000000  0.00000000  0.00000000       0.001
   0.31250000  0.00000000  0.00000000       0.001
   0.37500000  0.00000000  0.00000000       0.001
   0.43750000  0.00000000  0.00000000       0.001
   0.50000000  0.00000000  0.00000000       0.001
   0.06250000  0.06250000  0.00000000       0.003
   0.12500000  0.06250000  0.00000000       0.006
   0.18750000  0.06250000  0.00000000       0.006
   0.25000000  0.06250000  0.00000000       0.006
   0.31250000  0.06250000  0.00000000       0.006
   0.37500000  0.06250000  0.00000000       0.006
   0.43750000  0.06250000  0.00000000       0.006
   0.50000000  0.06250000  0.00000000       0.003
   0.12500000  0.12500000  0.00000000       0.003
   0.18750000  0.12500000  0.00000000       0.006
   0.25000000  0.12500000  0.00000000       0.006
   0.31250000  0.12500000  0.00000000       0.006
   0.37500000  0.12500000  0.00000000       0.006
   0.43750000  0.12500000  0.00000000       0.006
   0.50000000  0.12500000  0.00000000       0.003
   0.18750000  0.18750000  0.00000000       0.003
   0.25000000  0.18750000  0.00000000       0.006
   0.31250000  0.18750000  0.00000000       0.006
   0.37500000  0.18750000  0.00000000       0.006
   0.43750000  0.18750000  0.00000000       0.006
   0.50000000  0.18750000  0.00000000       0.003
   0.25000000  0.25000000  0.00000000       0.003
   0.31250000  0.25000000  0.00000000       0.006
   0.37500000  0.25000000  0.00000000       0.006
   0.43750000  0.25000000  0.00000000       0.006
   0.50000000  0.25000000  0.00000000       0.003
   0.31250000  0.31250000  0.00000000       0.003
   0.37500000  0.31250000  0.00000000       0.006
   0.43750000  0.31250000  0.00000000       0.006
   0.50000000  0.31250000  0.00000000       0.003
   0.37500000  0.37500000  0.00000000       0.003
   0.43750000  0.37500000  0.00000000       0.006
   0.50000000  0.37500000  0.00000000       0.003
   0.43750000  0.43750000  0.00000000       0.003
   0.50000000  0.43750000  0.00000000       0.003
   0.50000000  0.50000000  0.00000000       0.001
   0.06250000  0.06250000  0.06250000       0.002
   0.12500000  0.06250000  0.06250000       0.006
   0.18750000  0.06250000  0.06250000       0.006
   0.25000000  0.06250000  0.06250000       0.006
   0.31250000  0.06250000  0.06250000       0.006
   0.37500000  0.06250000  0.06250000       0.006
   0.43750000  0.06250000  0.06250000       0.006
   0.50000000  0.06250000  0.06250000       0.003
   0.12500000  0.12500000  0.06250000       0.006
   0.18750000  0.12500000  0.06250000       0.012
   0.25000000  0.12500000  0.06250000       0.012
   0.31250000  0.12500000  0.06250000       0.012
   0.37500000  0.12500000  0.06250000       0.012
   0.43750000  0.12500000  0.06250000       0.012
   0.50000000  0.12500000  0.06250000       0.006
   0.18750000  0.18750000  0.06250000       0.006
   0.25000000  0.18750000  0.06250000       0.012
   0.31250000  0.18750000  0.06250000       0.012
   0.37500000  0.18750000  0.06250000       0.012
   0.43750000  0.18750000  0.06250000       0.012
   0.50000000  0.18750000  0.06250000       0.006
   0.25000000  0.25000000  0.06250000       0.006
   0.31250000  0.25000000  0.06250000       0.012
   0.37500000  0.25000000  0.06250000       0.012
   0.43750000  0.25000000  0.06250000       0.012
   0.50000000  0.25000000  0.06250000       0.006
   0.31250000  0.31250000  0.06250000       0.006
   0.37500000  0.31250000  0.06250000       0.012
   0.43750000  0.31250000  0.06250000       0.012
   0.50000000  0.31250000  0.06250000       0.006
   0.37500000  0.37500000  0.06250000       0.006
   0.43750000  0.37500000  0.06250000       0.012
   0.50000000  0.37500000  0.06250000       0.006
   0.43750000  0.43750000  0.06250000       0.006
   0.50000000  0.43750000  0.06250000       0.006
   0.50000000  0.50000000  0.06250000       0.001
   0.12500000  0.12500000  0.12500000       0.002
   0.18750000  0.12500000  0.12500000       0.006
   0.25000000  0.12500000  0.12500000       0.006
   0.31250000  0.12500000  0.12500000       0.006
   0.37500000  0.12500000  0.12500000       0.006
   0.43750000  0.12500000  0.12500000       0.006
   0.50000000  0.12500000  0.12500000       0.003
   0.18750000  0.18750000  0.12500000       0.006
   0.25000000  0.18750000  0.12500000       0.012
   0.31250000  0.18750000  0.12500000       0.012
   0.37500000  0.18750000  0.12500000       0.012
   0.43750000  0.18750000  0.12500000       0.012
   0.50000000  0.18750000  0.12500000       0.006
   0.25000000  0.25000000  0.12500000       0.006
   0.31250000  0.25000000  0.12500000       0.012
   0.37500000  0.25000000  0.12500000       0.012
   0.43750000  0.25000000  0.12500000       0.012
   0.50000000  0.25000000  0.12500000       0.006
   0.31250000  0.31250000  0.12500000       0.006
   0.37500000  0.31250000  0.12500000       0.012
   0.43750000  0.31250000  0.12500000       0.012
   0.50000000  0.31250000  0.12500000       0.006
   0.37500000  0.37500000  0.12500000       0.006
   0.43750000  0.37500000  0.12500000       0.012
   0.50000000  0.37500000  0.12500000       0.006
   0.43750000  0.43750000  0.12500000       0.006
   0.50000000  0.43750000  0.12500000       0.006
   0.50000000  0.50000000  0.12500000       0.001
   0.18750000  0.18750000  0.18750000       0.002
   0.25000000  0.18750000  0.18750000       0.006
   0.31250000  0.18750000  0.18750000       0.006
   0.37500000  0.18750000  0.18750000       0.006
   0.43750000  0.18750000  0.18750000       0.006
   0.50000000  0.18750000  0.18750000       0.003
   0.25000000  0.25000000  0.18750000       0.006
   0.31250000  0.25000000  0.18750000       0.012
   0.37500000  0.25000000  0.18750000       0.012
   0.43750000  0.25000000  0.18750000       0.012
   0.50000000  0.25000000  0.18750000       0.006
   0.31250000  0.31250000  0.18750000       0.006
   0.37500000  0.31250000  0.18750000       0.012
   0.43750000  0.31250000  0.18750000       0.012
   0.50000000  0.31250000  0.18750000       0.006
   0.37500000  0.37500000  0.18750000       0.006
   0.43750000  0.37500000  0.18750000       0.012
   0.50000000  0.37500000  0.18750000       0.006
   0.43750000  0.43750000  0.18750000       0.006
   0.50000000  0.43750000  0.18750000       0.006
   0.50000000  0.50000000  0.18750000       0.001
   0.25000000  0.25000000  0.25000000       0.002
   0.31250000  0.25000000  0.25000000       0.006
   0.37500000  0.25000000  0.25000000       0.006
   0.43750000  0.25000000  0.25000000       0.006
   0.50000000  0.25000000  0.25000000       0.003
   0.31250000  0.31250000  0.25000000       0.006
   0.37500000  0.31250000  0.25000000       0.012
   0.43750000  0.31250000  0.25000000       0.012
   0.50000000  0.31250000  0.25000000       0.006
   0.37500000  0.37500000  0.25000000       0.006
   0.43750000  0.37500000  0.25000000       0.012
   0.50000000  0.37500000  0.25000000       0.006
   0.43750000  0.43750000  0.25000000       0.006
   0.50000000  0.43750000  0.25000000       0.006
   0.50000000  0.50000000  0.25000000       0.001
   0.31250000  0.31250000  0.31250000       0.002
   0.37500000  0.31250000  0.31250000       0.006
   0.43750000  0.31250000  0.31250000       0.006
   0.50000000  0.31250000  0.31250000       0.003
   0.37500000  0.37500000  0.31250000       0.006
   0.43750000  0.37500000  0.31250000       0.012
   0.50000000  0.37500000  0.31250000       0.006
   0.43750000  0.43750000  0.31250000       0.006
   0.50000000  0.43750000  0.31250000       0.006
   0.50000000  0.50000000  0.31250000       0.001
   0.37500000  0.37500000  0.37500000       0.002
   0.43750000  0.37500000  0.37500000       0.006
   0.50000000  0.37500000  0.37500000       0.003
   0.43750000  0.43750000  0.37500000       0.006
   0.50000000  0.43750000  0.37500000       0.006
   0.50000000  0.50000000  0.37500000       0.001
   0.43750000  0.43750000  0.43750000       0.002
   0.50000000  0.43750000  0.43750000       0.003
   0.50000000  0.50000000  0.43750000       0.001
   0.50000000  0.50000000  0.50000000       0.000
 
 position of ions in fractional coordinates (direct lattice) 
   0.00000000  0.00000000  0.00000000
   0.00000000  0.50000000  0.50000000
   0.50000000  0.00000000  0.50000000
   0.50000000  0.50000000  0.00000000
 
 position of ions in cartesian coordinates  (Angst):
   0.00000000  0.00000000  0.00000000
   0.00000000  1.97882245  1.97882245
   1.97882245  0.00000000  1.97882245
   1.97882245  1.97882245  0.00000000
 


--------------------------------------------------------------------------------------------------------


 k-point   1 :   0.0000 0.0000 0.0000  plane waves:    1141
 k-point   2 :   0.0625 0.0000 0.0000  plane waves:    1149
 k-point   3 :   0.1250 0.0000 0.0000  plane waves:    1129
 k-point   4 :   0.1875 0.0000 0.0000  plane waves:    1121
 k-point   5 :   0.2500 0.0000 0.0000  plane waves:    1141
 k-point   6 :   0.3125 0.0000 0.0000  plane waves:    1133
 k-point   7 :   0.3750 0.0000 0.0000  plane waves:    1141
 k-point   8 :   0.4375 0.0000 0.0000  plane waves:    1133
 k-point   9 :   0.5000 0.0000 0.0000  plane waves:    1140
 k-point  10 :   0.0625 0.0625 0.0000  plane waves:    1145
 k-point  11 :   0.1250 0.0625 0.0000  plane waves:    1141
 k-point  12 :   0.1875 0.0625 0.0000  plane waves:    1127
 k-point  13 :   0.2500 0.0625 0.0000  plane waves:    1128
 k-point  14 :   0.3125 0.0625 0.0000  plane waves:    1131
 k-point  15 :   0.3750 0.0625 0.0000  plane waves:    1137
 k-point  16 :   0.4375 0.0625 0.0000  plane waves:    1132
 k-point  17 :   0.5000 0.0625 0.0000  plane waves:    1134
 k-point  18 :   0.1250 0.1250 0.0000  plane waves:    1129
 k-point  19 :   0.1875 0.1250 0.0000  plane waves:    1127
 k-point  20 :   0.2500 0.1250 0.0000  plane waves:    1135
 k-point  21 :   0.3125 0.1250 0.0000  plane waves:    1133
 k-point  22 :   0.3750 0.1250 0.0000  plane waves:    1124
 k-point  23 :   0.4375 0.1250 0.0000  plane waves:    1127
 k-point  24 :   0.5000 0.1250 0.0000  plane waves:    1126
 k-point  25 :   0.1875 0.1875 0.0000  plane waves:    1129
 k-point  26 :   0.2500 0.1875 0.0000  plane waves:    1129
 k-point  27 :   0.3125 0.1875 0.0000  plane waves:    1132
 k-point  28 :   0.3750 0.1875 0.0000  plane waves:    1127
 k-point  29 :   0.4375 0.1875 0.0000  plane waves:    1131
 k-point  30 :   0.5000 0.1875 0.0000  plane waves:    1130
 k-point  31 :   0.2500 0.2500 0.0000  plane waves:    1141
 k-point  32 :   0.3125 0.2500 0.0000  plane waves:    1130
 k-point  33 :   0.3750 0.2500 0.0000  plane waves:    1126
 k-point  34 :   0.4375 0.2500 0.0000  plane waves:    1129
 k-point  35 :   0.5000 0.2500 0.0000  plane waves:    1122
 k-point  36 :   0.3125 0.3125 0.0000  plane waves:    1131
 k-point  37 :   0.3750 0.3125 0.0000  plane waves:    1126
 k-point  38 :   0.4375 0.3125 0.0000  plane waves:    1122
 k-point  39 :   0.5000 0.3125 0.0000  plane waves:    1128
 k-point  40 :   0.3750 0.3750 0.0000  plane waves:    1121
 k-point  41 :   0.4375 0.3750 0.0000  plane waves:    1115
 k-point  42 :   0.5000 0.3750 0.0000  plane waves:    1118
 k-point  43 :   0.4375 0.4375 0.0000  plane waves:    1126
 k-point  44 :   0.5000 0.4375 0.0000  plane waves:    1112
 k-point  45 :   0.5000 0.5000 0.0000  plane waves:    1132
 k-point  46 :   0.0625 0.0625 0.0625  plane waves:    1135
 k-point  47 :   0.1250 0.0625 0.0625  plane waves:    1127
 k-point  48 :   0.1875 0.0625 0.0625  plane waves:    1126
 k-point  49 :   0.2500 0.0625 0.0625  plane waves:    1132
 k-point  50 :   0.3125 0.0625 0.0625  plane waves:    1132
 k-point  51 :   0.3750 0.0625 0.0625  plane waves:    1135
 k-point  52 :   0.4375 0.0625 0.0625  plane waves:    1139
 k-point  53 :   0.5000 0.0625 0.0625  plane waves:    1140
 k-point  54 :   0.1250 0.1250 0.0625  plane waves:    1124
 k-point  55 :   0.1875 0.1250 0.0625  plane waves:    1124
 k-point  56 :   0.2500 0.1250 0.0625  plane waves:    1129
 k-point  57 :   0.3125 0.1250 0.0625  plane waves:    1133
 k-point  58 :   0.3750 0.1250 0.0625  plane waves:    1132
 k-point  59 :   0.4375 0.1250 0.0625  plane waves:    1134
 k-point  60 :   0.5000 0.1250 0.0625  plane waves:    1140
 k-point  61 :   0.1875 0.1875 0.0625  plane waves:    1131
 k-point  62 :   0.2500 0.1875 0.0625  plane waves:    1131
 k-point  63 :   0.3125 0.1875 0.0625  plane waves:    1132
 k-point  64 :   0.3750 0.1875 0.0625  plane waves:    1128
 k-point  65 :   0.4375 0.1875 0.0625  plane waves:    1127
 k-point  66 :   0.5000 0.1875 0.0625  plane waves:    1128
 k-point  67 :   0.2500 0.2500 0.0625  plane waves:    1128
 k-point  68 :   0.3125 0.2500 0.0625  plane waves:    1128
 k-point  69 :   0.3750 0.2500 0.0625  plane waves:    1124
 k-point  70 :   0.4375 0.2500 0.0625  plane waves:    1126
 k-point  71 :   0.5000 0.2500 0.0625  plane waves:    1120
 k-point  72 :   0.3125 0.3125 0.0625  plane waves:    1132
 k-point  73 :   0.3750 0.3125 0.0625  plane waves:    1127
 k-point  74 :   0.4375 0.3125 0.0625  plane waves:    1119
 k-point  75 :   0.5000 0.3125 0.0625  plane waves:    1124
 k-point  76 :   0.3750 0.3750 0.0625  plane waves:    1126
 k-point  77 :   0.4375 0.3750 0.0625  plane waves:    1122
 k-point  78 :   0.5000 0.3750 0.0625  plane waves:    1124
 k-point  79 :   0.4375 0.4375 0.0625  plane waves:    1123
 k-point  80 :   0.5000 0.4375 0.0625  plane waves:    1118
 k-point  81 :   0.5000 0.5000 0.0625  plane waves:    1116
 k-point  82 :   0.1250 0.1250 0.1250  plane waves:    1117
 k-point  83 :   0.1875 0.1250 0.1250  plane waves:    1123
 k-point  84 :   0.2500 0.1250 0.1250  plane waves:    1132
 k-point  85 :   0.3125 0.1250 0.1250  plane waves:    1135
 k-point  86 :   0.3750 0.1250 0.1250  plane waves:    1136
 k-point  87 :   0.4375 0.1250 0.1250  plane waves:    1139
 k-point  88 :   0.5000 0.1250 0.1250  plane waves:    1136
 k-point  89 :   0.1875 0.1875 0.1250  plane waves:    1129
 k-point  90 :   0.2500 0.1875 0.1250  plane waves:    1127
 k-point  91 :   0.3125 0.1875 0.1250  plane waves:    1129
 k-point  92 :   0.3750 0.1875 0.1250  plane waves:    1130
 k-point  93 :   0.4375 0.1875 0.1250  plane waves:    1132
 k-point  94 :   0.5000 0.1875 0.1250  plane waves:    1130
 k-point  95 :   0.2500 0.2500 0.1250  plane waves:    1130
 k-point  96 :   0.3125 0.2500 0.1250  plane waves:    1128
 k-point  97 :   0.3750 0.2500 0.1250  plane waves:    1125
 k-point  98 :   0.4375 0.2500 0.1250  plane waves:    1130
 k-point  99 :   0.5000 0.2500 0.1250  plane waves:    1130
 k-point 100 :   0.3125 0.3125 0.1250  plane waves:    1127
 k-point 101 :   0.3750 0.3125 0.1250  plane waves:    1127
 k-point 102 :   0.4375 0.3125 0.1250  plane waves:    1122
 k-point 103 :   0.5000 0.3125 0.1250  plane waves:    1122
 k-point 104 :   0.3750 0.3750 0.1250  plane waves:    1121
 k-point 105 :   0.4375 0.3750 0.1250  plane waves:    1123
 k-point 106 :   0.5000 0.3750 0.1250  plane waves:    1112
 k-point 107 :   0.4375 0.4375 0.1250  plane waves:    1126
 k-point 108 :   0.5000 0.4375 0.1250  plane waves:    1118
 k-point 109 :   0.5000 0.5000 0.1250  plane waves:    1124
 k-point 110 :   0.1875 0.1875 0.1875  plane waves:    1123
 k-point 111 :   0.2500 0.1875 0.1875  plane waves:    1130
 k-point 112 :   0.3125 0.1875 0.1875  plane waves:    1126
 k-point 113 :   0.3750 0.1875 0.1875  plane waves:    1132
 k-point 114 :   0.4375 0.1875 0.1875  plane waves:    1128
 k-point 115 :   0.5000 0.1875 0.1875  plane waves:    1130
 k-point 116 :   0.2500 0.2500 0.1875  plane waves:    1129
 k-point 117 :   0.3125 0.2500 0.1875  plane waves:    1127
 k-point 118 :   0.3750 0.2500 0.1875  plane waves:    1129
 k-point 119 :   0.4375 0.2500 0.1875  plane waves:    1128
 k-point 120 :   0.5000 0.2500 0.1875  plane waves:    1132
 k-point 121 :   0.3125 0.3125 0.1875  plane waves:    1128
 k-point 122 :   0.3750 0.3125 0.1875  plane waves:    1125
 k-point 123 :   0.4375 0.3125 0.1875  plane waves:    1129
 k-point 124 :   0.5000 0.3125 0.1875  plane waves:    1120
 k-point 125 :   0.3750 0.3750 0.1875  plane waves:    1121
 k-point 126 :   0.4375 0.3750 0.1875  plane waves:    1128
 k-point 127 :   0.5000 0.3750 0.1875  plane waves:    1118
 k-point 128 :   0.4375 0.4375 0.1875  plane waves:    1116
 k-point 129 :   0.5000 0.4375 0.1875  plane waves:    1122
 k-point 130 :   0.5000 0.5000 0.1875  plane waves:    1120
 k-point 131 :   0.2500 0.2500 0.2500  plane waves:    1126
 k-point 132 :   0.3125 0.2500 0.2500  plane waves:    1128
 k-point 133 :   0.3750 0.2500 0.2500  plane waves:    1123
 k-point 134 :   0.4375 0.2500 0.2500  plane waves:    1122
 k-point 135 :   0.5000 0.2500 0.2500  plane waves:    1128
 k-point 136 :   0.3125 0.3125 0.2500  plane waves:    1132
 k-point 137 :   0.3750 0.3125 0.2500  plane waves:    1122
 k-point 138 :   0.4375 0.3125 0.2500  plane waves:    1122
 k-point 139 :   0.5000 0.3125 0.2500  plane waves:    1120
 k-point 140 :   0.3750 0.3750 0.2500  plane waves:    1123
 k-point 141 :   0.4375 0.3750 0.2500  plane waves:    1128
 k-point 142 :   0.5000 0.3750 0.2500  plane waves:    1112
 k-point 143 :   0.4375 0.4375 0.2500  plane waves:    1113
 k-point 144 :   0.5000 0.4375 0.2500  plane waves:    1120
 k-point 145 :   0.5000 0.5000 0.2500  plane waves:    1128
 k-point 146 :   0.3125 0.3125 0.3125  plane waves:    1118
 k-point 147 :   0.3750 0.3125 0.3125  plane waves:    1120
 k-point 148 :   0.4375 0.3125 0.3125  plane waves:    1118
 k-point 149 :   0.5000 0.3125 0.3125  plane waves:    1110
 k-point 150 :   0.3750 0.3750 0.3125  plane waves:    1118
 k-point 151 :   0.4375 0.3750 0.3125  plane waves:    1113
 k-point 152 :   0.5000 0.3750 0.3125  plane waves:    1120
 k-point 153 :   0.4375 0.4375 0.3125  plane waves:    1111
 k-point 154 :   0.5000 0.4375 0.3125  plane waves:    1112
 k-point 155 :   0.5000 0.5000 0.3125  plane waves:    1112
 k-point 156 :   0.3750 0.3750 0.3750  plane waves:    1121
 k-point 157 :   0.4375 0.3750 0.3750  plane waves:    1113
 k-point 158 :   0.5000 0.3750 0.3750  plane waves:    1110
 k-point 159 :   0.4375 0.4375 0.3750  plane waves:    1106
 k-point 160 :   0.5000 0.4375 0.3750  plane waves:    1102
 k-point 161 :   0.5000 0.5000 0.3750  plane waves:    1104
 k-point 162 :   0.4375 0.4375 0.4375  plane waves:    1094
 k-point 163 :   0.5000 0.4375 0.4375  plane waves:    1092
 k-point 164 :   0.5000 0.5000 0.4375  plane waves:    1088
 k-point 165 :   0.5000 0.5000 0.5000  plane waves:    1088

 maximum and minimum number of plane-waves per node :      1149     1088

 maximum number of plane-waves:      1149
 maximum index in each direction: 
   IXMAX=    6   IYMAX=    6   IZMAX=    6
   IXMIN=   -6   IYMIN=   -6   IZMIN=   -6


 serial   3D FFT for wavefunctions
 parallel 3D FFT for charge:
    minimum data exchange during FFTs selected (reduces bandwidth)


 total amount of memory used by VASP MPI-rank0    46050. kBytes
=======================================================================

   base      :      30000. kBytes
   nonl-proj :      12238. kBytes
   fftplans  :        147. kBytes
   grid      :        485. kBytes
   one-center:         12. kBytes
   wavefun   :       3168. kBytes
 
     INWAV:  cpu time      0.0000: real time      0.0001
 Broyden mixing: mesh for mixing (old mesh)
   NGX = 13   NGY = 13   NGZ = 13
  (NGX  = 40   NGY  = 40   NGZ  = 40)
  gives a total of   2197 points

 initial charge density was supplied:
 charge density of overlapping atoms calculated
 number of electron      12.0000000 magnetization 
 keeping initial charge density in first step


--------------------------------------------------------------------------------------------------------


 Maximum index for augmentation-charges          349 (set IRDMAX)


--------------------------------------------------------------------------------------------------------


 First call to EWALD:  gamma=   0.448
 Maximum number of real-space cells 3x 3x 3
 Maximum number of reciprocal cells 3x 3x 3

    FEWALD:  cpu time      0.0011: real time      0.0011


--------------------------------------- Iteration      1(   1)  ---------------------------------------


    POTLOK:  cpu time      0.0029: real time      0.0114
    SETDIJ:  cpu time      0.0049: real time      0.0079
     EDDAV:  cpu time      0.6005: real time      0.6419
       DOS:  cpu time      0.0010: real time      0.0075
    --------------------------------------------
      LOOP:  cpu time      0.6094: real time      0.6688

 eigenvalue-minimisations  :  7944
 total energy-change (2. order) :-0.7487179E+01  (-0.4008346E+03)
 number of electron      12.0000000 magnetization 
 augmentation part       12.0000000 magnetization 

 Free energy of the ion-electron system (eV)
  ---------------------------------------------------
  alpha Z        PSCENC =        -0.86695176
  Ewald energy   TEWEN  =      -300.27421003
  -Hartree energ DENC   =        -0.32762189
  -exchange      EXHF   =         0.00000000
  -V(xc)+E(xc)   XCENC  =      -104.50217822
  PAW double counting   =       264.80062850     -136.98248303
  entropy T*S    EENTRO =        -0.00202025
  eigenvalues    EBANDS =        56.51504045
  atomic energy  EATOM  =       214.15261729
  Solvation  Ediel_sol  =         0.00000000
  ---------------------------------------------------
  free energy    TOTEN  =        -7.48717892 eV

  energy without entropy =       -7.48515867  energy(sigma->0) =       -7.48616880


--------------------------------------------------------------------------------------------------------




--------------------------------------- Iteration      1(   2)  ---------------------------------------


     EDDAV:  cpu time      1.0210: real time      1.0281
       DOS:  cpu time      0.0006: real time      0.0006
    --------------------------------------------
      LOOP:  cpu time      1.0216: real time      1.0287

 eigenvalue-minimisations  : 11664
 total energy-change (2. order) :-0.7503190E+01  (-0.7413372E+01)
 number of electron      12.0000000 magnetization 
 augmentation part       12.0000000 magnetization 

 Free energy of the ion-electron system (eV)
  ---------------------------------------------------
  alpha Z        PSCENC =        -0.86695176
  Ewald energy   TEWEN  =      -300.27421003
  -Hartree energ DENC   =        -0.32762189
  -exchange      EXHF   =         0.00000000
  -V(xc)+E(xc)   XCENC  =      -104.50217822
  PAW double counting   =       264.80062850     -136.98248303
  entropy T*S    EENTRO =        -0.00127244
  eigenvalues    EBANDS =        49.01110264
  atomic energy  EATOM  =       214.15261729
  Solvation  Ediel_sol  =         0.00000000
  ---------------------------------------------------
  free energy    TOTEN  =       -14.99036893 eV

  energy without entropy =      -14.98909649  energy(sigma->0) =      -14.98973271


--------------------------------------------------------------------------------------------------------




--------------------------------------- Iteration      1(   3)  ---------------------------------------


     EDDAV:  cpu time      0.9158: real time      0.9226
       DOS:  cpu time      0.0006: real time      0.0006
    --------------------------------------------
      LOOP:  cpu time      0.9165: real time      0.9232

 eigenvalue-minimisations  : 10632
 total energy-change (2. order) :-0.2958731E-01  (-0.2958382E-01)
 number of electron      12.0000000 magnetization 
 augmentation part       12.0000000 magnetization 

 Free energy of the ion-electron system (eV)
  ---------------------------------------------------
  alpha Z        PSCENC =        -0.86695176
  Ewald energy   TEWEN  =      -300.27421003
  -Hartree energ DENC   =        -0.32762189
  -exchange      EXHF   =         0.00000000
  -V(xc)+E(xc)   XCENC  =      -104.50217822
  PAW double counting   =       264.80062850     -136.98248303
  entropy T*S    EENTRO =        -0.00128531
  eigenvalues    EBANDS =        48.98152820
  atomic energy  EATOM  =       214.15261729
  Solvation  Ediel_sol  =         0.00000000
  ---------------------------------------------------
  free energy    TOTEN  =       -15.01995624 eV

  energy without entropy =      -15.01867093  energy(sigma->0) =      -15.01931358


--------------------------------------------------------------------------------------------------------




--------------------------------------- Iteration      1(   4)  ---------------------------------------


     EDDAV:  cpu time      1.3172: real time      1.3256
       DOS:  cpu time      0.0006: real time      0.0006
    --------------------------------------------
      LOOP:  cpu time      1.3179: real time      1.3263

 eigenvalue-minimisations  : 13416
 total energy-change (2. order) :-0.4217230E-04  (-0.4217241E-04)
 number of electron      12.0000000 magnetization 
 augmentation part       12.0000000 magnetization 

 Free energy of the ion-electron system (eV)
  ---------------------------------------------------
  alpha Z        PSCENC =        -0.86695176
  Ewald energy   TEWEN  =      -300.27421003
  -Hartree energ DENC   =        -0.32762189
  -exchange      EXHF   =         0.00000000
  -V(xc)+E(xc)   XCENC  =      -104.50217822
  PAW double counting   =       264.80062850     -136.98248303
  entropy T*S    EENTRO =        -0.00128534
  eigenvalues    EBANDS =        48.98148606
  atomic energy  EATOM  =       214.15261729
  Solvation  Ediel_sol  =         0.00000000
  ---------------------------------------------------
  free energy    TOTEN  =       -15.01999841 eV

  energy without entropy =      -15.01871307  energy(sigma->0) =      -15.01935574


--------------------------------------------------------------------------------------------------------




--------------------------------------- Iteration      1(   5)  ---------------------------------------


     EDDAV:  cpu time      0.9543: real time      0.9614
       DOS:  cpu time      0.0010: real time      0.0010
    CHARGE:  cpu time      0.0142: real time      0.0143
    MIXING:  cpu time      0.0005: real time      0.0064
    --------------------------------------------
      LOOP:  cpu time      0.9700: real time      0.9831

 eigenvalue-minimisations  : 10800
 total energy-change (2. order) :-0.4517858E-08  (-0.5384953E-08)
 number of electron      12.0000001 magnetization 
 augmentation part       -0.1432835 magnetization 

 Broyden mixing:
  rms(total) = 0.28352E+00    rms(broyden)= 0.28352E+00
  rms(prec ) = 0.48986E+00
  weight for this iteration     100.00

 Free energy of the ion-electron system (eV)
  ---------------------------------------------------
  alpha Z        PSCENC =        -0.86695176
  Ewald energy   TEWEN  =      -300.27421003
  -Hartree energ DENC   =        -0.32762189
  -exchange      EXHF   =         0.00000000
  -V(xc)+E(xc)   XCENC  =      -104.50217822
  PAW double counting   =       264.80062850     -136.98248303
  entropy T*S    EENTRO =        -0.00128534
  eigenvalues    EBANDS =        48.98148606
  atomic energy  EATOM  =       214.15261729
  Solvation  Ediel_sol  =         0.00000000
  ---------------------------------------------------
  free energy    TOTEN  =       -15.01999841 eV

  energy without entropy =      -15.01871307  energy(sigma->0) =      -15.01935574


--------------------------------------------------------------------------------------------------------




--------------------------------------- Iteration      1(   6)  ---------------------------------------


    POTLOK:  cpu time      0.0020: real time      0.0022
    SETDIJ:  cpu time      0.0009: real time      0.0009
     EDDAV:  cpu time      1.0561: real time      1.0624
       DOS:  cpu time      0.0006: real time      0.0006
    CHARGE:  cpu time      0.0130: real time      0.0131
    MIXING:  cpu time      0.0003: real time      0.0018
    --------------------------------------------
      LOOP:  cpu time      1.0729: real time      1.0811

 eigenvalue-minimisations  : 11496
 total energy-change (2. order) : 0.5476319E-01  (-0.5327723E-03)
 number of electron      12.0000001 magnetization 
 augmentation part       -0.1452111 magnetization 

 Broyden mixing:
  rms(total) = 0.16479E+00    rms(broyden)= 0.16479E+00
  rms(prec ) = 0.29969E+00
  weight for this iteration     100.00

 eigenvalues of (default mixing * dielectric matrix)
  average eigenvalue GAMMA=   2.3427
  2.3427

 Free energy of the ion-electron system (eV)
  ---------------------------------------------------
  alpha Z        PSCENC =        -0.86695176
  Ewald energy   TEWEN  =      -300.27421003
  -Hartree energ DENC   =        -0.30988816
  -exchange      EXHF   =         0.00000000
  -V(xc)+E(xc)   XCENC  =      -104.34146482
  PAW double counting   =       401.06360026     -273.27585530
  entropy T*S    EENTRO =        -0.00126826
  eigenvalues    EBANDS =        48.88818557
  atomic energy  EATOM  =       214.15261729
  Solvation  Ediel_sol  =         0.00000000
  ---------------------------------------------------
  free energy    TOTEN  =       -14.96523522 eV

  energy without entropy =      -14.96396696  energy(sigma->0) =      -14.96460109


--------------------------------------------------------------------------------------------------------




--------------------------------------- Iteration      1(   7)  ---------------------------------------


    POTLOK:  cpu time      0.0019: real time      0.0021
    SETDIJ:  cpu time      0.0009: real time      0.0009
     EDDAV:  cpu time      0.8926: real time      0.8986
       DOS:  cpu time      0.0006: real time      0.0006
    CHARGE:  cpu time      0.0129: real time      0.0129
    MIXING:  cpu time      0.0002: real time      0.0002
    --------------------------------------------
      LOOP:  cpu time      0.9090: real time      0.9152

 eigenvalue-minimisations  : 10440
 total energy-change (2. order) : 0.3994636E-01  (-0.1549892E-02)
 number of electron      12.0000001 magnetization 
 augmentation part       -0.1490009 magnetization 

 Broyden mixing:
  rms(total) = 0.28457E-01    rms(broyden)= 0.28457E-01
  rms(prec ) = 0.30954E-01
  weight for this iteration     100.00

 eigenvalues of (default mixing * dielectric matrix)
  average eigenvalue GAMMA=   2.9861
  2.7940  3.1781

 Free energy of the ion-electron system (eV)
  ---------------------------------------------------
  alpha Z        PSCENC =        -0.86695176
  Ewald energy   TEWEN  =      -300.27421003
  -Hartree energ DENC   =        -0.44868841
  -exchange      EXHF   =         0.00000000
  -V(xc)+E(xc)   XCENC  =      -104.03423054
  PAW double counting   =       683.85304526     -556.12054168
  entropy T*S    EENTRO =        -0.00124344
  eigenvalues    EBANDS =        48.81491445
  atomic energy  EATOM  =       214.15261729
  Solvation  Ediel_sol  =         0.00000000
  ---------------------------------------------------
  free energy    TOTEN  =       -14.92528886 eV

  energy without entropy =      -14.92404542  energy(sigma->0) =      -14.92466714


--------------------------------------------------------------------------------------------------------




--------------------------------------- Iteration      1(   8)  ---------------------------------------


    POTLOK:  cpu time      0.0019: real time      0.0021
    SETDIJ:  cpu time      0.0009: real time      0.0009
     EDDAV:  cpu time      1.4044: real time      1.4132
       DOS:  cpu time      0.0006: real time      0.0006
    CHARGE:  cpu time      0.0134: real time      0.0135
    MIXING:  cpu time      0.0003: real time      0.0017
    --------------------------------------------
      LOOP:  cpu time      1.4215: real time      1.4320

 eigenvalue-minimisations  : 13920
 total energy-change (2. order) : 0.1240670E-03  (-0.8063998E-05)
 number of electron      12.0000001 magnetization 
 augmentation part       -0.1493456 magnetization 

 Broyden mixing:
  rms(total) = 0.64328E-02    rms(broyden)= 0.64328E-02
  rms(prec ) = 0.73692E-02
  weight for this iteration     100.00

 eigenvalues of (default mixing * dielectric matrix)
  average eigenvalue GAMMA=   2.1066
  1.0402  2.5814  2.6981

 Free energy of the ion-electron system (eV)
  ---------------------------------------------------
  alpha Z        PSCENC =        -0.86695176
  Ewald energy   TEWEN  =      -300.27421003
  -Hartree energ DENC   =        -0.46540351
  -exchange      EXHF   =         0.00000000
  -V(xc)+E(xc)   XCENC  =      -104.01304908
  PAW double counting   =       618.33725148     -490.61403920
  entropy T*S    EENTRO =        -0.00124252
  eigenvalues    EBANDS =        48.81986255
  atomic energy  EATOM  =       214.15261729
  Solvation  Ediel_sol  =         0.00000000
  ---------------------------------------------------
  free energy    TOTEN  =       -14.92516479 eV

  energy without entropy =      -14.92392227  energy(sigma->0) =      -14.92454353


--------------------------------------------------------------------------------------------------------




--------------------------------------- Iteration      1(   9)  ---------------------------------------


    POTLOK:  cpu time      0.0020: real time      0.0021
    SETDIJ:  cpu time      0.0009: real time      0.0009
     EDDAV:  cpu time      0.9748: real time      0.9807
       DOS:  cpu time      0.0007: real time      0.0006
    --------------------------------------------
      LOOP:  cpu time      0.9783: real time      0.9844

 eigenvalue-minimisations  : 10704
 total energy-change (2. order) : 0.8441264E-05  (-0.3239845E-06)
 number of electron      12.0000001 magnetization 
 augmentation part       -0.1493456 magnetization 

 Free energy of the ion-electron system (eV)
  ---------------------------------------------------
  alpha Z        PSCENC =        -0.86695176
  Ewald energy   TEWEN  =      -300.27421003
  -Hartree energ DENC   =        -0.46804563
  -exchange      EXHF   =         0.00000000
  -V(xc)+E(xc)   XCENC  =      -104.00925142
  PAW double counting   =       630.96201305     -503.23867117
  entropy T*S    EENTRO =        -0.00124227
  eigenvalues    EBANDS =        48.81858559
  atomic energy  EATOM  =       214.15261729
  Solvation  Ediel_sol  =         0.00000000
  ---------------------------------------------------
  free energy    TOTEN  =       -14.92515635 eV

  energy without entropy =      -14.92391408  energy(sigma->0) =      -14.92453522


--------------------------------------------------------------------------------------------------------




 average (electrostatic) potential at core
  the test charge radii are     1.0406
  (the norm of the test charge is              1.0000)
       1 -71.8671       2 -71.8671       3 -71.8671       4 -71.8671
 
 
 
 E-fermi :   8.6735     XC(G=0): -10.4254     alpha+bet :-15.8391

 Fermi energy:         8.6734865492

 k-point     1 :       0.0000    0.0000    0.0000
  band No.  band energies     occupation 
      1      -2.9043      2.00000
      2       5.5952      2.00000
      3       5.5952      2.00000
      4       5.5952      2.00000
      5       7.0518      2.00000
      6       7.0518      2.00000
      7       7.0518      2.00000
      8      13.9426      0.00000
      9      13.9426      0.00000
     10      13.9426      0.00000
     11      14.5675      0.00000
     12      14.5675      0.00000
     13      14.5675      0.00000
     14      14.5675      0.00000
     15      14.5675      0.00000
     16      14.5675      0.00000
     17      18.3570      0.00000
     18      18.3570      0.00000
     19      18.3570      0.00000
     20      21.6479      0.00000
     21      21.6479      0.00000
     22      21.6479      0.00000
     23      23.6238      0.00000
     24      23.6238      0.00000

 k-point     2 :       0.0625    0.0000    0.0000
  band No.  band energies     occupation 
[...]
      5       5.0610      2.00000
      6       5.0610      2.00000
      7       7.2567      2.00000
      8       7.2567      2.00000
      9      16.0392      0.00000
     10      16.0392      0.00000
     11      17.1787      0.00000
     12      17.1787      0.00000
     13      17.9671      0.00000
     14      17.9671      0.00000
     15      19.1377      0.00000
     16      19.1377      0.00000
     17      20.6000      0.00000
     18      20.6000      0.00000
     19      21.6567      0.00000
     20      21.6567      0.00000
     21      22.5158      0.00000
     22      22.5158      0.00000
     23      23.2491      0.00000
     24      23.2491      0.00000

 k-point   153 :       0.4375    0.4375    0.3125
  band No.  band energies     occupation 
      1       1.5596      2.00000
      2       2.6941      2.00000
      3       2.6941      2.00000
      4       3.8020      2.00000
      5       4.9910      2.00000
      6       6.0839      2.00000
      7       6.0839      2.00000
      8       7.1889      2.00000
      9      16.0241      0.00000
     10      16.9859      0.00000
     11      16.9859      0.00000
     12      17.9964      0.00000
     13      18.1140      0.00000
     14      18.1140      0.00000
     15      18.4191      0.00000
     16      20.3097      0.00000
     17      20.4228      0.00000
     18      21.4422      0.00000
     19      21.4422      0.00000
     20      21.4552      0.00000
     21      22.0378      0.00000
     22      22.5035      0.00000
     23      22.5035      0.00000
     24      23.4774      0.00000

 k-point   154 :       0.5000    0.4375    0.3125
  band No.  band energies     occupation 
      1       2.0932      2.00000
      2       2.0932      2.00000
      3       3.2196      2.00000
      4       3.2196      2.00000
      5       5.4981      2.00000
      6       5.4981      2.00000
      7       6.6022      2.00000
      8       6.6022      2.00000
      9      16.4936      0.00000
     10      16.4936      0.00000
     11      17.4807      0.00000
     12      17.4807      0.00000
     13      18.4401      0.00000
     14      18.4401      0.00000
     15      19.4381      0.00000
     16      19.4381      0.00000
     17      21.2008      0.00000
     18      21.2008      0.00000
     19      21.6208      0.00000
     20      21.6208      0.00000
     21      22.0741      0.00000
     22      22.0741      0.00000
     23      22.6297      0.00000
     24      22.6297      0.00000

 k-point   155 :       0.5000    0.5000    0.3125
  band No.  band energies     occupation 
      1       2.6237      2.00000
      2       2.6237      2.00000
      3       2.6237      2.00000
      4       2.6237      2.00000
      5       6.0150      2.00000
      6       6.0150      2.00000
      7       6.0150      2.00000
      8       6.0150      2.00000
      9      16.9727      0.00000
     10      16.9727      0.00000
     11      16.9727      0.00000
     12      16.9727      0.00000
     13      19.3622      0.00000
     14      19.3622      0.00000
     15      19.3622      0.00000
     16      19.3622      0.00000
     17      21.1891      0.00000
     18      21.1891      0.00000
     19      21.1891      0.00000
     20      21.1891      0.00000
     21      22.4017      0.00000
     22      22.4017      0.00000
     23      22.4017      0.00000
     24      22.4017      0.00000

 k-point   156 :       0.3750    0.3750    0.3750
  band No.  band energies     occupation 
      1       1.0235      2.00000
      2       3.2889      2.00000
      3       3.2889      2.00000
      4       3.2889      2.00000
      5       5.5688      2.00000
      6       5.5688      2.00000
      7       5.5688      2.00000
      8       7.7755      2.00000
      9      16.5706      0.00000
     10      16.5706      0.00000
     11      16.5706      0.00000
     12      17.9446      0.00000
     13      17.9446      0.00000
     14      17.9446      0.00000
     15      19.7962      0.00000
     16      19.7962      0.00000
     17      19.7962      0.00000
     18      19.9454      0.00000
     19      19.9454      0.00000
     20      21.9848      0.00000
     21      21.9848      0.00000
     22      23.6666      0.00000
     23      24.0092      0.00000
     24      24.0092      0.00000

 k-point   157 :       0.4375    0.3750    0.3750
  band No.  band energies     occupation 
      1       1.4883      2.00000
      2       2.6234      2.00000
      3       3.7318      2.00000
      4       3.7318      2.00000
      5       4.9228      2.00000
      6       4.9228      2.00000
      7       6.0163      2.00000
      8       7.1219      2.00000
      9      16.9591      0.00000
     10      16.9591      0.00000
     11      17.9139      0.00000
     12      17.9139      0.00000
     13      17.9899      0.00000
     14      18.3512      0.00000
     15      19.3518      0.00000
     16      20.1263      0.00000
     17      20.3244      0.00000
     18      20.6347      0.00000
     19      20.6347      0.00000
     20      20.8965      0.00000
     21      22.3956      0.00000
     22      23.1104      0.00000
     23      23.1104      0.00000
     24      23.4083      0.00000

 k-point   158 :       0.5000    0.3750    0.3750
  band No.  band energies     occupation 
      1       2.0222      2.00000
      2       2.0222      2.00000
      3       4.0963      2.00000
      4       4.0963      2.00000
      5       4.4905      2.00000
      6       4.4905      2.00000
      7       6.5349      2.00000
      8       6.5349      2.00000
      9      17.2290      0.00000
     10      17.2290      0.00000
     11      17.6779      0.00000
     12      17.6779      0.00000
     13      18.8202      0.00000
     14      18.8202      0.00000
     15      19.3946      0.00000
     16      19.3946      0.00000
     17      20.4168      0.00000
     18      20.4168      0.00000
     19      21.8063      0.00000
     20      21.8063      0.00000
     21      21.9566      0.00000
     22      21.9566      0.00000
     23      22.8703      0.00000
     24      22.8703      0.00000

 k-point   159 :       0.4375    0.4375    0.3750
  band No.  band energies     occupation 
      1       1.9512      2.00000
      2       3.0791      2.00000
      3       3.0791      2.00000
      4       4.0283      2.00000
      5       4.4193      2.00000
      6       5.3610      2.00000
      7       5.3610      2.00000
      8       6.4666      2.00000
      9      17.3878      0.00000
     10      18.1705      0.00000
     11      18.1705      0.00000
     12      18.4975      0.00000
     13      18.4975      0.00000
     14      18.7629      0.00000
     15      19.1912      0.00000
     16      20.5600      0.00000
     17      20.6383      0.00000
     18      20.8987      0.00000
     19      20.8987      0.00000
     20      20.9282      0.00000
     21      21.8519      0.00000
     22      22.5288      0.00000
     23      22.5288      0.00000
     24      22.8162      0.00000

 k-point   160 :       0.5000    0.4375    0.3750
  band No.  band energies     occupation 
      1       2.4824      2.00000
      2       2.4824      2.00000
      3       3.5933      2.00000
      4       3.5933      2.00000
      5       4.7827      2.00000
      6       4.7827      2.00000
      7       5.8786      2.00000
      8       5.8786      2.00000
      9      17.8213      0.00000
     10      17.8213      0.00000
     11      18.7161      0.00000
     12      18.7161      0.00000
     13      18.7828      0.00000
     14      18.7828      0.00000
     15      19.7458      0.00000
     16      19.7458      0.00000
     17      21.0343      0.00000
     18      21.0343      0.00000
     19      21.3882      0.00000
     20      21.3882      0.00000
     21      21.9892      0.00000
     22      21.9892      0.00000
     23      22.0455      0.00000
     24      22.0455      0.00000

 k-point   161 :       0.5000    0.5000    0.3750
  band No.  band energies     occupation 
      1       3.0091      2.00000
      2       3.0091      2.00000
      3       3.0091      2.00000
      4       3.0091      2.00000
      5       5.2915      2.00000
      6       5.2915      2.00000
      7       5.2915      2.00000
      8       5.2915      2.00000
      9      18.2831      0.00000
     10      18.2831      0.00000
     11      18.2831      0.00000
     12      18.2831      0.00000
     13      19.7032      0.00000
     14      19.7032      0.00000
     15      19.7032      0.00000
     16      19.7032      0.00000
     17      21.3028      0.00000
     18      21.3028      0.00000
     19      21.3028      0.00000
     20      21.3028      0.00000
     21      21.7457      0.00000
     22      21.7457      0.00000
     23      21.7457      0.00000
     24      21.7457      0.00000

 k-point   162 :       0.4375    0.4375    0.4375
  band No.  band energies     occupation 
      1       2.4118      2.00000
      2       3.5236      2.00000
      3       3.5236      2.00000
      4       3.5236      2.00000
      5       4.7130      2.00000
      6       4.7130      2.00000
      7       4.7130      2.00000
      8       5.8100      2.00000
      9      18.7549      0.00000
     10      18.7549      0.00000
     11      18.7549      0.00000
     12      19.1687      0.00000
     13      19.1687      0.00000
     14      19.1687      0.00000
     15      20.1597      0.00000
     16      20.1597      0.00000
     17      20.7558      0.00000
     18      20.7558      0.00000
     19      20.7558      0.00000
     20      21.2209      0.00000
     21      21.2209      0.00000
     22      22.2180      0.00000
     23      22.2180      0.00000
     24      22.2180      0.00000

 k-point   163 :       0.5000    0.4375    0.4375
  band No.  band energies     occupation 
      1       2.9388      2.00000
      2       2.9388      2.00000
      3       3.8924      2.00000
      4       3.8924      2.00000
      5       4.2763      2.00000
      6       4.2763      2.00000
      7       5.2224      2.00000
      8       5.2224      2.00000
      9      19.0324      0.00000
     10      19.0324      0.00000
     11      19.2471      0.00000
     12      19.2471      0.00000
     13      19.6359      0.00000
     14      19.6359      0.00000
     15      20.0383      0.00000
     16      20.0383      0.00000
     17      20.7541      0.00000
     18      20.7541      0.00000
     19      21.4315      0.00000
     20      21.4315      0.00000
     21      21.4604      0.00000
     22      21.4604      0.00000
     23      21.6846      0.00000
     24      21.6846      0.00000

 k-point   164 :       0.5000    0.5000    0.4375
  band No.  band energies     occupation 
      1       3.4541      2.00000
      2       3.4541      2.00000
      3       3.4541      2.00000
      4       3.4541      2.00000
      5       4.6429      2.00000
      6       4.6429      2.00000
      7       4.6429      2.00000
      8       4.6429      2.00000
      9      19.5344      0.00000
     10      19.5344      0.00000
     11      19.5344      0.00000
     12      19.5344      0.00000
     13      20.0984      0.00000
     14      20.0984      0.00000
     15      20.0984      0.00000
     16      20.0984      0.00000
     17      21.1613      0.00000
     18      21.1613      0.00000
     19      21.1613      0.00000
     20      21.1613      0.00000
     21      21.1990      0.00000
     22      21.1990      0.00000
     23      21.1990      0.00000
     24      21.1990      0.00000

 k-point   165 :       0.5000    0.5000    0.5000
  band No.  band energies     occupation 
      1       3.8245      2.00000
      2       3.8245      2.00000
      3       3.8245      2.00000
      4       3.8245      2.00000
      5       4.2046      2.00000
      6       4.2046      2.00000
      7       4.2046      2.00000
      8       4.2046      2.00000
      9      20.4286      0.00000
     10      20.4286      0.00000
     11      20.4286      0.00000
     12      20.4286      0.00000
     13      20.4286      0.00000
     14      20.4286      0.00000
     15      20.4286      0.00000
     16      20.4286      0.00000
     17      20.7680      0.00000
     18      20.7680      0.00000
     19      20.7680      0.00000
     20      20.7680      0.00000
     21      20.7680      0.00000
     22      20.7680      0.00000
     23      20.7680      0.00000
     24      20.7680      0.00000


--------------------------------------------------------------------------------------------------------


 soft charge-density along one line, spin component           1
         0         1         2         3         4         5         6         7         8         9
 total charge-density along one line
 
 pseudopotential strength for first ion, spin component:           1
  8.423  14.354  -0.000   0.000  -0.000  -0.000   0.000   0.000
 14.354  24.462  -0.000   0.000   0.000  -0.000   0.000   0.000
 -0.000  -0.000   1.991  -0.000   0.000   5.735  -0.000   0.000
  0.000   0.000  -0.000   1.991  -0.000  -0.000   5.735  -0.000
 -0.000   0.000   0.000  -0.000   1.991   0.000  -0.000   5.735
 -0.000  -0.000   5.735  -0.000   0.000  16.434  -0.000   0.000
  0.000   0.000  -0.000   5.735  -0.000  -0.000  16.434  -0.000
  0.000   0.000   0.000  -0.000   5.735   0.000  -0.000  16.434
 total augmentation occupancy for first ion, spin component:           1
  3.635  -0.949   0.000   0.000   0.000   0.000   0.000   0.000
 -0.949   0.313   0.000   0.000   0.000   0.000   0.000   0.000
  0.000   0.000   1.205   0.000   0.000  -0.081  -0.000   0.000
  0.000   0.000  -0.000   1.205  -0.000   0.000  -0.081   0.000
  0.000   0.000   0.000  -0.000   1.205   0.000  -0.000  -0.081
  0.000   0.000  -0.081   0.000   0.000   0.006  -0.000   0.000
  0.000   0.000   0.000  -0.081   0.000  -0.000   0.006   0.000
  0.000   0.000  -0.000   0.000  -0.081   0.000   0.000   0.006


------------------------ aborting loop because EDIFF is reached ----------------------------------------


    CHARGE:  cpu time      0.0129: real time      0.0129
    FORLOC:  cpu time      0.0002: real time      0.0018
    FORNL :  cpu time      0.0299: real time      0.0301
    STRESS:  cpu time      0.3004: real time      0.3021
    FORCOR:  cpu time      0.0018: real time      0.0019
    FORHAR:  cpu time      0.0004: real time      0.0004
    MIXING:  cpu time      0.0002: real time      0.0002
    OFIELD:  cpu time      0.0000: real time      0.0000

  FORCE on cell =-STRESS in cart. coord.  units (eV):
  Direction    XX          YY          ZZ          XY          YZ          ZX
  --------------------------------------------------------------------------------------
  Alpha Z    -0.86695    -0.86695    -0.86695
  Ewald    -100.09145  -100.09145  -100.09145    -0.00000    -0.00000    -0.00000
  Hartree     0.15602     0.15602     0.15602    -0.00000    -0.00000    -0.00000
  E(xc)     -34.96280   -34.96280   -34.96280     0.00000    -0.00000     0.00000
  Local       2.43288     2.43288     2.43288    -0.00000     0.00000     0.00000
  n-local    75.45114    76.40347    78.75747     0.42289     1.27673     0.53647
  augment    -3.97932    -3.97932    -3.97932     0.00000     0.00000     0.00000
  Kinetic    59.56283    61.90229    66.20649     1.64309    -8.44991    -1.63020
  Fock        0.00000     0.00000     0.00000     0.00000     0.00000     0.00000
  -------------------------------------------------------------------------------------
  Total       2.11628     2.11628     2.11628     0.00000     0.00000    -0.00000
  in kB      54.69829    54.69829    54.69829     0.00000     0.00000    -0.00000
  external pressure =       54.70 kB  Pullay stress =        0.00 kB


 VOLUME and BASIS-vectors are now :
 -----------------------------------------------------------------------------
  energy-cutoff  :      400.00
  volume of cell :       61.99
      direct lattice vectors                 reciprocal lattice vectors
     3.957644906  0.000000000  0.000000000     0.252675524  0.000000000  0.000000000
     0.000000000  3.957644906  0.000000000     0.000000000  0.252675524  0.000000000
     0.000000000  0.000000000  3.957644906     0.000000000  0.000000000  0.252675524

  length of vectors
     3.957644906  3.957644906  3.957644906     0.252675524  0.252675524  0.252675524


 FORCES acting on ions
    electron-ion (+dipol)            ewald-force                    non-local-force                 convergence-correction
 -----------------------------------------------------------------------------------------------
   -.848E-14 -.273E-14 0.813E-14   -.251E-14 -.122E-14 0.147E-15   -.425E-24 -.713E-24 0.400E-24   -.970E-15 -.415E-15 0.194E-14
   -.868E-14 -.137E-14 -.173E-14   -.259E-14 0.407E-15 0.399E-15   -.233E-24 -.101E-24 -.251E-24   -.108E-14 0.433E-15 -.205E-14
   -.372E-15 0.309E-15 -.328E-13   0.259E-14 -.371E-15 0.401E-15   -.674E-25 -.194E-25 -.746E-24   0.109E-14 -.376E-15 -.206E-14
   -.147E-14 -.842E-14 0.226E-13   0.251E-14 0.126E-14 -.745E-15   -.124E-24 0.665E-24 0.460E-24   0.121E-14 0.372E-15 0.196E-14
 -----------------------------------------------------------------------------------------------
   -.190E-13 -.122E-13 -.375E-14   0.497E-17 0.723E-16 0.202E-15   -.850E-24 -.168E-24 -.137E-24   0.248E-15 0.146E-16 -.212E-15
 
 
 POSITION                                       TOTAL-FORCE (eV/Angst)
 -----------------------------------------------------------------------------------
      0.00000      0.00000      0.00000        -0.000000      0.000000      0.000000
      0.00000      1.97882      1.97882        -0.000000     -0.000000     -0.000000
      1.97882      0.00000      1.97882         0.000000      0.000000      0.000000
      1.97882      1.97882      0.00000         0.000000     -0.000000      0.000000
 -----------------------------------------------------------------------------------
    total drift:                               -0.000000     -0.000000     -0.000000


--------------------------------------------------------------------------------------------------------



  FREE ENERGIE OF THE ION-ELECTRON SYSTEM (eV)
  ---------------------------------------------------
  free  energy   TOTEN  =       -14.92515635 eV

  energy  without entropy=      -14.92391408  energy(sigma->0) =      -14.92453522
 


--------------------------------------------------------------------------------------------------------


    POTLOK:  cpu time      0.0029: real time      0.0029


--------------------------------------------------------------------------------------------------------




--------------------------------------------------------------------------------------------------------


  
 reached required accuracy - stopping structural energy minimisation
 writing wavefunctions
     LOOP+:  cpu time      9.7821: real time     10.0248
    4ORBIT:  cpu time      0.0000: real time      0.0000

 total amount of memory used by VASP MPI-rank0    46050. kBytes
=======================================================================

   base      :      30000. kBytes
   nonl-proj :      12238. kBytes
   fftplans  :        147. kBytes
   grid      :        485. kBytes
   one-center:         12. kBytes
   wavefun   :       3168. kBytes
 
  
  
 General timing and accounting informations for this job:
 ========================================================
  
                  Total CPU time used (sec):       10.740
                            User time (sec):       10.208
                          System time (sec):        0.533
                         Elapsed time (sec):       12.620
  
                   Maximum memory used (kb):      284248.
                   Average memory used (kb):          N/A
  
                          Minor page faults:        31990
                          Major page faults:         2012
                 Voluntary context switches:         3321
