       N       E                     dE             d eps       ncg     rms          rms(c)
DAV:   1    -0.877408450691E+01   -0.87741E+01   -0.37139E+03  2688   0.279E+02
DAV:   2    -0.150402028951E+02   -0.62661E+01   -0.62121E+01  4056   0.238E+01
DAV:   3    -0.150640492247E+02   -0.23846E-01   -0.23841E-01  3384   0.180E+00
DAV:   4    -0.150640928277E+02   -0.43603E-04   -0.43603E-04  4728   0.703E-02
DAV:   5    -0.150640928313E+02   -0.36105E-08   -0.43917E-08  3384   0.572E-04    0.262E+00
DAV:   6    -0.150128541104E+02    0.51239E-01   -0.63002E-03  3984   0.241E-01    0.152E+00
DAV:   7    -0.149752956393E+02    0.37558E-01   -0.18165E-02  3408   0.384E-01    0.267E-01
DAV:   8    -0.149751848009E+02    0.11084E-03   -0.82565E-05  4800   0.346E-02    0.339E-02
DAV:   9    -0.149751765298E+02    0.82712E-05   -0.36019E-06  2424   0.547E-03
   1 F= -.14975177E+02 E0= -.14973970E+02  d E =-.241274E-02
