       N       E                     dE             d eps       ncg     rms          rms(c)
DAV:   1    -0.790517333675E+01   -0.79052E+01   -0.38509E+03  7920   0.303E+02
DAV:   2    -0.150316974001E+02   -0.71265E+01   -0.70553E+01 11640   0.253E+01
DAV:   3    -0.150622037562E+02   -0.30506E-01   -0.30503E-01 10656   0.205E+00
DAV:   4    -0.150622521951E+02   -0.48439E-04   -0.48439E-04 13704   0.743E-02
DAV:   5    -0.150622522054E+02   -0.10300E-07   -0.10771E-07 10368   0.726E-04    0.252E+00
DAV:   6    -0.150111937934E+02    0.51058E-01   -0.71344E-03 11736   0.262E-01    0.147E+00
DAV:   7    -0.149739212757E+02    0.37273E-01   -0.20342E-02 10248   0.415E-01    0.259E-01
DAV:   8    -0.149738146679E+02    0.10661E-03   -0.79415E-05 13968   0.349E-02    0.238E-02
DAV:   9    -0.149738065551E+02    0.81128E-05   -0.39221E-06 10560   0.566E-03
   1 F= -.14973807E+02 E0= -.14972872E+02  d E =-.149738E+02
