 vasp.6.3.0 20Jan22 (build Feb 10 2022 15:15:41) complex                        
  
 executed on             LinuxIFC date 2023.09.09  16:13:03
 running on   24 total cores
 distrk:  each k-point on   24 cores,    1 groups
 distr:  one band on NCORE=   1 cores,   24 groups


--------------------------------------------------------------------------------------------------------


 INCAR:
   ENCUT = 400
   ISMEAR = 0
   SIGMA = 0.05
   IBRION = 2
   ISIF = 4
   NSW = 100
   EDIFF = 1E-05
   EDIFFG = -0.01

 POTCAR:    PAW_PBE Al 04Jan2001                  
 -----------------------------------------------------------------------------
|                                                                             |
|           W    W    AA    RRRRR   N    N  II  N    N   GGGG   !!!           |
|           W    W   A  A   R    R  NN   N  II  NN   N  G    G  !!!           |
|           W    W  A    A  R    R  N N  N  II  N N  N  G       !!!           |
|           W WW W  AAAAAA  RRRRR   N  N N  II  N  N N  G  GGG   !            |
|           WW  WW  A    A  R   R   N   NN  II  N   NN  G    G                |
|           W    W  A    A  R    R  N    N  II  N    N   GGGG   !!!           |
|                                                                             |
|     For optimal performance we recommend to set                             |
|       NCORE = 2 up to number-of-cores-per-socket                            |
|     NCORE specifies how many cores store one orbital (NPAR=cpu/NCORE).      |
|     This setting can greatly improve the performance of VASP for DFT.       |
|     The default, NCORE=1 might be grossly inefficient on modern             |
|     multi-core architectures or massively parallel machines. Do your        |
|     own testing! More info at https://www.vasp.at/wiki/index.php/NCORE      |
|     Unfortunately you need to use the default for GW and RPA                |
|     calculations (for HF NCORE is supported but not extensively tested      |
|     yet).                                                                   |
|                                                                             |
 -----------------------------------------------------------------------------

 POTCAR:    PAW_PBE Al 04Jan2001                  
   SHA256 =  17880443556af62b473fe41b62a467bd001ad55d2cabe504a3f22e34d4e9db96 Al/POTCAR             
   COPYR  = (c) Copyright 04Jan2001 Georg Kresse                                                    
   COPYR  = This file is part of the software VASP. Any use, copying, and all other rights are regul
   COPYR  = If you do not have a valid VASP license, you may not use, copy or distribute this file. 
   VRHFIN =Al: s2p1                                                                                 
   LEXCH  = PE                                                                                      
   EATOM  =    53.5387 eV,    3.9350 Ry                                                             
                                                                                                    
   TITEL  = PAW_PBE Al 04Jan2001                                                                    
   LULTRA =        F    use ultrasoft PP ?                                                          
   IUNSCR =        1    unscreen: 0-lin 1-nonlin 2-no                                               
   RPACOR =    1.500    partial core radius                                                         
   POMASS =   26.981; ZVAL   =    3.000    mass and valenz                                          
   RCORE  =    1.900    outmost cutoff radius                                                       
   RWIGS  =    2.650; RWIGS  =    1.402    wigner-seitz radius (au A)                               
   ENMAX  =  240.300; ENMIN  =  180.225 eV                                                          
   ICORE  =        2    local potential                                                             
   LCOR   =        T    correct aug charges                                                         
   LPAW   =        T    paw PP                                                                      
   EAUG   =  291.052                                                                                
   DEXC   =    0.000                                                                                
   RMAX   =    1.939    core radius for proj-oper                                                   
   RAUG   =    1.300    factor for augmentation sphere                                              
   RDEP   =    1.966    radius for radial grids                                                     
   RDEPT  =    1.856    core radius for aug-charge                                                  
                                                                                                    
   Atomic configuration                                                                             
    6 entries                                                                                       
     n  l   j            E        occ.                                                              
     1  0  0.50     -1511.1048   2.0000                                                             
     2  0  0.50      -108.1629   2.0000                                                             
     2  1  1.50       -69.6402   6.0000                                                             
     3  0  0.50        -7.7528   2.0000                                                             
     3  1  1.50        -2.7121   1.0000                                                             
     3  2  2.50        -2.7212   0.0000                                                             
   Description                                                                                      
     l       E           TYP  RCUT    TYP  RCUT                                                     
     0     -7.7528455     23  1.900                                                                 
     0     -3.3096929     23  1.900                                                                 
     1     -2.7120682     23  1.900                                                                 
     1     13.6058260     23  1.900                                                                 
     2     -2.7211652      7  1.900                                                                 
  local pseudopotential read in
  partial core-charges read in
  partial kinetic energy density read in
  atomic valenz-charges read in
  non local Contribution for L=           0  read in
    real space projection operators read in
  non local Contribution for L=           0  read in
    real space projection operators read in
  non local Contribution for L=           1  read in
    real space projection operators read in
  non local Contribution for L=           1  read in
    real space projection operators read in
    PAW grid and wavefunctions read in
 
   number of l-projection  operators is LMAX  =           4
   number of lm-projection operators is LMMAX =           8
 
  PAW_PBE Al 04Jan2001                  :
 energy of atom  1       EATOM=  -53.5387
 kinetic energy error for atom=    0.0005 (will be added to EATOM!!)
 
 
 POSCAR: Al4
  positions in direct lattice
  No initial velocities read in
 exchange correlation table for  LEXCH =        8
   RHO(1)=    0.500       N(1)  =     2000
   RHO(2)=  100.500       N(2)  =     4000
 


--------------------------------------------------------------------------------------------------------


 ion  position               nearest neighbor table
   1  0.000  0.000  0.000-   2 2.88   3 2.88   4 2.88   2 2.88   3 2.88   2 2.88   4 2.88   2 2.88
                             3 2.88   4 2.88   3 2.88   4 2.88
   2  0.000  0.500  0.500-   1 2.88   3 2.88   4 2.88   1 2.88   4 2.88   1 2.88   3 2.88   1 2.88
                             3 2.88   4 2.88   4 2.88   3 2.88
   3  0.500  0.000  0.500-   1 2.88   2 2.88   4 2.88   1 2.88   4 2.88   2 2.88   4 2.88   4 2.88
                             1 2.88   2 2.88   1 2.88   2 2.88
   4  0.500  0.500  0.000-   1 2.88   2 2.88   3 2.88   2 2.88   3 2.88   1 2.88   3 2.88   3 2.88
                             1 2.88   2 2.88   2 2.88   1 2.88
 
  LATTYP: Found a simple cubic cell.
 ALAT       =     4.0787973007
  
  Lattice vectors:
  
 A1 = (   4.0787973007,   0.0000000000,   0.0000000000)
 A2 = (   0.0000000000,   4.0787973007,   0.0000000000)
 A3 = (   0.0000000000,   0.0000000000,   4.0787973007)


Analysis of symmetry for initial positions (statically):
=====================================================================
 Subroutine PRICEL returns following result:
 
  LATTYP: Found a face centered cubic cell.
 ALAT       =     4.0787973007
  
  Lattice vectors:
  
 A1 = (   2.0393986504,  -2.0393986504,   0.0000000000)
 A2 = (   2.0393986504,   0.0000000000,   2.0393986504)
 A3 = (   0.0000000000,  -2.0393986504,   2.0393986504)
 
   4 primitive cells build up your supercell.
 

 Routine SETGRP: Setting up the symmetry group for a 
 simple cubic supercell.


 Subroutine GETGRP returns: Found 48 space group operations
 (whereof 48 operations were pure point group operations)
 out of a pool of 48 trial point group operations.


The static configuration has the point symmetry O_h .


Analysis of symmetry for dynamics (positions and initial velocities):
=====================================================================
 Subroutine PRICEL returns following result:
 
  LATTYP: Found a face centered cubic cell.
 ALAT       =     4.0787973007
  
  Lattice vectors:
  
 A1 = (   2.0393986504,  -2.0393986504,   0.0000000000)
 A2 = (   2.0393986504,   0.0000000000,   2.0393986504)
 A3 = (   0.0000000000,  -2.0393986504,   2.0393986504)
 
   4 primitive cells build up your supercell.
 

 Routine SETGRP: Setting up the symmetry group for a 
 simple cubic supercell.


 Subroutine GETGRP returns: Found 48 space group operations
 (whereof 48 operations were pure point group operations)
 out of a pool of 48 trial point group operations.


The dynamic configuration has the point symmetry O_h .


 Subroutine INISYM returns: Found 48 space group operations
 (whereof 48 operations are pure point group operations),
 and found     4 'primitive' translations


----------------------------------------------------------------------------------------

                                     Primitive cell                                     

  volume of cell :      16.9643

  direct lattice vectors                    reciprocal lattice vectors
     2.039398650 -2.039398650  0.000000000     0.245170310 -0.245170310 -0.245170310
     2.039398650  0.000000000  2.039398650     0.245170310  0.245170310  0.245170310
     0.000000000 -2.039398650  2.039398650    -0.245170310 -0.245170310  0.245170310

  length of vectors
     2.884145230  2.884145230  2.884145230     0.424647434  0.424647434  0.424647434

  position of ions in fractional coordinates (direct lattice)
     0.000000000  0.000000000  0.000000000

  ion indices of the primitive-cell ions
   primitive index   ion index
                 1           1

----------------------------------------------------------------------------------------

 
 
 KPOINTS: k-points                                

Automatic generation of k-mesh.
 Grid dimensions read from file:
 generate k-points for:   16   16   16

 Generating k-lattice:

  Cartesian coordinates                     Fractional coordinates (reciprocal lattice)
     0.015323144  0.000000000  0.000000000     0.062500000  0.000000000  0.000000000
     0.000000000  0.015323144  0.000000000     0.000000000  0.062500000  0.000000000
     0.000000000  0.000000000  0.015323144     0.000000000  0.000000000  0.062500000

  Length of vectors
     0.015323144  0.015323144  0.015323144

  Shift w.r.t. Gamma in fractional coordinates (k-lattice)
     0.000000000  0.000000000  0.000000000

 
 Subroutine IBZKPT returns following result:
 ===========================================
 
 Found    165 irreducible k-points:
 
 Following reciprocal coordinates:
            Coordinates               Weight
  0.000000  0.000000  0.000000      1.000000
  0.062500  0.000000  0.000000      6.000000
  0.125000  0.000000  0.000000      6.000000
  0.187500  0.000000  0.000000      6.000000
  0.250000  0.000000  0.000000      6.000000
  0.312500  0.000000  0.000000      6.000000
  0.375000  0.000000  0.000000      6.000000
  0.437500  0.000000  0.000000      6.000000
  0.500000  0.000000  0.000000      3.000000
  0.062500  0.062500  0.000000     12.000000
  0.125000  0.062500  0.000000     24.000000
  0.187500  0.062500  0.000000     24.000000
  0.250000  0.062500  0.000000     24.000000
  0.312500  0.062500  0.000000     24.000000
  0.375000  0.062500  0.000000     24.000000
  0.437500  0.062500  0.000000     24.000000
  0.500000  0.062500  0.000000     12.000000
  0.125000  0.125000  0.000000     12.000000
  0.187500  0.125000  0.000000     24.000000
  0.250000  0.125000  0.000000     24.000000
  0.312500  0.125000  0.000000     24.000000
  0.375000  0.125000  0.000000     24.000000
  0.437500  0.125000  0.000000     24.000000
  0.500000  0.125000  0.000000     12.000000
  0.187500  0.187500  0.000000     12.000000
  0.250000  0.187500  0.000000     24.000000
  0.312500  0.187500  0.000000     24.000000
  0.375000  0.187500  0.000000     24.000000
  0.437500  0.187500  0.000000     24.000000
  0.500000  0.187500  0.000000     12.000000
  0.250000  0.250000  0.000000     12.000000
  0.312500  0.250000  0.000000     24.000000
  0.375000  0.250000  0.000000     24.000000
  0.437500  0.250000  0.000000     24.000000
  0.500000  0.250000  0.000000     12.000000
  0.312500  0.312500  0.000000     12.000000
  0.375000  0.312500  0.000000     24.000000
  0.437500  0.312500  0.000000     24.000000
  0.500000  0.312500  0.000000     12.000000
  0.375000  0.375000  0.000000     12.000000
  0.437500  0.375000  0.000000     24.000000
  0.500000  0.375000  0.000000     12.000000
  0.437500  0.437500  0.000000     12.000000
  0.500000  0.437500  0.000000     12.000000
  0.500000  0.500000  0.000000      3.000000
  0.062500  0.062500  0.062500      8.000000
  0.125000  0.062500  0.062500     24.000000
  0.187500  0.062500  0.062500     24.000000
  0.250000  0.062500  0.062500     24.000000
  0.312500  0.062500  0.062500     24.000000
  0.375000  0.062500  0.062500     24.000000
  0.437500  0.062500  0.062500     24.000000
  0.500000  0.062500  0.062500     12.000000
  0.125000  0.125000  0.062500     24.000000
  0.187500  0.125000  0.062500     48.000000
  0.250000  0.125000  0.062500     48.000000
  0.312500  0.125000  0.062500     48.000000
  0.375000  0.125000  0.062500     48.000000
  0.437500  0.125000  0.062500     48.000000
  0.500000  0.125000  0.062500     24.000000
  0.187500  0.187500  0.062500     24.000000
  0.250000  0.187500  0.062500     48.000000
  0.312500  0.187500  0.062500     48.000000
  0.375000  0.187500  0.062500     48.000000
  0.437500  0.187500  0.062500     48.000000
  0.500000  0.187500  0.062500     24.000000
  0.250000  0.250000  0.062500     24.000000
  0.312500  0.250000  0.062500     48.000000
  0.375000  0.250000  0.062500     48.000000
  0.437500  0.250000  0.062500     48.000000
  0.500000  0.250000  0.062500     24.000000
  0.312500  0.312500  0.062500     24.000000
  0.375000  0.312500  0.062500     48.000000
  0.437500  0.312500  0.062500     48.000000
  0.500000  0.312500  0.062500     24.000000
  0.375000  0.375000  0.062500     24.000000
  0.437500  0.375000  0.062500     48.000000
  0.500000  0.375000  0.062500     24.000000
  0.437500  0.437500  0.062500     24.000000
  0.500000  0.437500  0.062500     24.000000
  0.500000  0.500000  0.062500      6.000000
  0.125000  0.125000  0.125000      8.000000
  0.187500  0.125000  0.125000     24.000000
  0.250000  0.125000  0.125000     24.000000
  0.312500  0.125000  0.125000     24.000000
  0.375000  0.125000  0.125000     24.000000
  0.437500  0.125000  0.125000     24.000000
  0.500000  0.125000  0.125000     12.000000
  0.187500  0.187500  0.125000     24.000000
  0.250000  0.187500  0.125000     48.000000
  0.312500  0.187500  0.125000     48.000000
  0.375000  0.187500  0.125000     48.000000
  0.437500  0.187500  0.125000     48.000000
  0.500000  0.187500  0.125000     24.000000
  0.250000  0.250000  0.125000     24.000000
  0.312500  0.250000  0.125000     48.000000
  0.375000  0.250000  0.125000     48.000000
  0.437500  0.250000  0.125000     48.000000
  0.500000  0.250000  0.125000     24.000000
  0.312500  0.312500  0.125000     24.000000
  0.375000  0.312500  0.125000     48.000000
  0.437500  0.312500  0.125000     48.000000
  0.500000  0.312500  0.125000     24.000000
  0.375000  0.375000  0.125000     24.000000
  0.437500  0.375000  0.125000     48.000000
  0.500000  0.375000  0.125000     24.000000
  0.437500  0.437500  0.125000     24.000000
  0.500000  0.437500  0.125000     24.000000
  0.500000  0.500000  0.125000      6.000000
  0.187500  0.187500  0.187500      8.000000
  0.250000  0.187500  0.187500     24.000000
  0.312500  0.187500  0.187500     24.000000
  0.375000  0.187500  0.187500     24.000000
  0.437500  0.187500  0.187500     24.000000
  0.500000  0.187500  0.187500     12.000000
  0.250000  0.250000  0.187500     24.000000
  0.312500  0.250000  0.187500     48.000000
  0.375000  0.250000  0.187500     48.000000
  0.437500  0.250000  0.187500     48.000000
  0.500000  0.250000  0.187500     24.000000
  0.312500  0.312500  0.187500     24.000000
  0.375000  0.312500  0.187500     48.000000
  0.437500  0.312500  0.187500     48.000000
  0.500000  0.312500  0.187500     24.000000
  0.375000  0.375000  0.187500     24.000000
  0.437500  0.375000  0.187500     48.000000
  0.500000  0.375000  0.187500     24.000000
  0.437500  0.437500  0.187500     24.000000
  0.500000  0.437500  0.187500     24.000000
  0.500000  0.500000  0.187500      6.000000
  0.250000  0.250000  0.250000      8.000000
  0.312500  0.250000  0.250000     24.000000
  0.375000  0.250000  0.250000     24.000000
  0.437500  0.250000  0.250000     24.000000
  0.500000  0.250000  0.250000     12.000000
  0.312500  0.312500  0.250000     24.000000
  0.375000  0.312500  0.250000     48.000000
  0.437500  0.312500  0.250000     48.000000
  0.500000  0.312500  0.250000     24.000000
  0.375000  0.375000  0.250000     24.000000
  0.437500  0.375000  0.250000     48.000000
  0.500000  0.375000  0.250000     24.000000
  0.437500  0.437500  0.250000     24.000000
  0.500000  0.437500  0.250000     24.000000
  0.500000  0.500000  0.250000      6.000000
  0.312500  0.312500  0.312500      8.000000
  0.375000  0.312500  0.312500     24.000000
  0.437500  0.312500  0.312500     24.000000
  0.500000  0.312500  0.312500     12.000000
  0.375000  0.375000  0.312500     24.000000
  0.437500  0.375000  0.312500     48.000000
  0.500000  0.375000  0.312500     24.000000
  0.437500  0.437500  0.312500     24.000000
  0.500000  0.437500  0.312500     24.000000
  0.500000  0.500000  0.312500      6.000000
  0.375000  0.375000  0.375000      8.000000
  0.437500  0.375000  0.375000     24.000000
  0.500000  0.375000  0.375000     12.000000
  0.437500  0.437500  0.375000     24.000000
  0.500000  0.437500  0.375000     24.000000
  0.500000  0.500000  0.375000      6.000000
  0.437500  0.437500  0.437500      8.000000
  0.500000  0.437500  0.437500     12.000000
  0.500000  0.500000  0.437500      6.000000
  0.500000  0.500000  0.500000      1.000000
 
 Following cartesian coordinates:
            Coordinates               Weight
  0.000000  0.000000  0.000000      1.000000
  0.015476  0.000000  0.000000      6.000000
  0.030953  0.000000  0.000000      6.000000
  0.046429  0.000000  0.000000      6.000000
  0.061906  0.000000  0.000000      6.000000
  0.077382  0.000000  0.000000      6.000000
  0.092858  0.000000  0.000000      6.000000
  0.108335  0.000000  0.000000      6.000000
  0.123811  0.000000  0.000000      3.000000
  0.015476  0.015476  0.000000     12.000000
  0.030953  0.015476  0.000000     24.000000
  0.046429  0.015476  0.000000     24.000000
  0.061906  0.015476  0.000000     24.000000
  0.077382  0.015476  0.000000     24.000000
  0.092858  0.015476  0.000000     24.000000
  0.108335  0.015476  0.000000     24.000000
  0.123811  0.015476  0.000000     12.000000
  0.030953  0.030953  0.000000     12.000000
  0.046429  0.030953  0.000000     24.000000
  0.061906  0.030953  0.000000     24.000000
  0.077382  0.030953  0.000000     24.000000
  0.092858  0.030953  0.000000     24.000000
  0.108335  0.030953  0.000000     24.000000
  0.123811  0.030953  0.000000     12.000000
  0.046429  0.046429  0.000000     12.000000
  0.061906  0.046429  0.000000     24.000000
  0.077382  0.046429  0.000000     24.000000
  0.092858  0.046429  0.000000     24.000000
  0.108335  0.046429  0.000000     24.000000
  0.123811  0.046429  0.000000     12.000000
  0.061906  0.061906  0.000000     12.000000
  0.077382  0.061906  0.000000     24.000000
  0.092858  0.061906  0.000000     24.000000
  0.108335  0.061906  0.000000     24.000000
  0.123811  0.061906  0.000000     12.000000
  0.077382  0.077382  0.000000     12.000000
  0.092858  0.077382  0.000000     24.000000
  0.108335  0.077382  0.000000     24.000000
  0.123811  0.077382  0.000000     12.000000
  0.092858  0.092858  0.000000     12.000000
  0.108335  0.092858  0.000000     24.000000
  0.123811  0.092858  0.000000     12.000000
  0.108335  0.108335  0.000000     12.000000
  0.123811  0.108335  0.000000     12.000000
  0.123811  0.123811  0.000000      3.000000
  0.015476  0.015476  0.015476      8.000000
  0.030953  0.015476  0.015476     24.000000
  0.046429  0.015476  0.015476     24.000000
  0.061906  0.015476  0.015476     24.000000
  0.077382  0.015476  0.015476     24.000000
  0.092858  0.015476  0.015476     24.000000
  0.108335  0.015476  0.015476     24.000000
  0.123811  0.015476  0.015476     12.000000
  0.030953  0.030953  0.015476     24.000000
  0.046429  0.030953  0.015476     48.000000
  0.061906  0.030953  0.015476     48.000000
  0.077382  0.030953  0.015476     48.000000
  0.092858  0.030953  0.015476     48.000000
  0.108335  0.030953  0.015476     48.000000
  0.123811  0.030953  0.015476     24.000000
  0.046429  0.046429  0.015476     24.000000
  0.061906  0.046429  0.015476     48.000000
  0.077382  0.046429  0.015476     48.000000
  0.092858  0.046429  0.015476     48.000000
  0.108335  0.046429  0.015476     48.000000
  0.123811  0.046429  0.015476     24.000000
  0.061906  0.061906  0.015476     24.000000
  0.077382  0.061906  0.015476     48.000000
  0.092858  0.061906  0.015476     48.000000
  0.108335  0.061906  0.015476     48.000000
  0.123811  0.061906  0.015476     24.000000
  0.077382  0.077382  0.015476     24.000000
  0.092858  0.077382  0.015476     48.000000
  0.108335  0.077382  0.015476     48.000000
  0.123811  0.077382  0.015476     24.000000
  0.092858  0.092858  0.015476     24.000000
  0.108335  0.092858  0.015476     48.000000
  0.123811  0.092858  0.015476     24.000000
  0.108335  0.108335  0.015476     24.000000
  0.123811  0.108335  0.015476     24.000000
  0.123811  0.123811  0.015476      6.000000
  0.030953  0.030953  0.030953      8.000000
  0.046429  0.030953  0.030953     24.000000
  0.061906  0.030953  0.030953     24.000000
  0.077382  0.030953  0.030953     24.000000
  0.092858  0.030953  0.030953     24.000000
  0.108335  0.030953  0.030953     24.000000
  0.123811  0.030953  0.030953     12.000000
  0.046429  0.046429  0.030953     24.000000
  0.061906  0.046429  0.030953     48.000000
  0.077382  0.046429  0.030953     48.000000
  0.092858  0.046429  0.030953     48.000000
  0.108335  0.046429  0.030953     48.000000
  0.123811  0.046429  0.030953     24.000000
  0.061906  0.061906  0.030953     24.000000
  0.077382  0.061906  0.030953     48.000000
  0.092858  0.061906  0.030953     48.000000
  0.108335  0.061906  0.030953     48.000000
  0.123811  0.061906  0.030953     24.000000
  0.077382  0.077382  0.030953     24.000000
  0.092858  0.077382  0.030953     48.000000
  0.108335  0.077382  0.030953     48.000000
  0.123811  0.077382  0.030953     24.000000
  0.092858  0.092858  0.030953     24.000000
  0.108335  0.092858  0.030953     48.000000
  0.123811  0.092858  0.030953     24.000000
  0.108335  0.108335  0.030953     24.000000
  0.123811  0.108335  0.030953     24.000000
  0.123811  0.123811  0.030953      6.000000
  0.046429  0.046429  0.046429      8.000000
  0.061906  0.046429  0.046429     24.000000
  0.077382  0.046429  0.046429     24.000000
  0.092858  0.046429  0.046429     24.000000
  0.108335  0.046429  0.046429     24.000000
  0.123811  0.046429  0.046429     12.000000
  0.061906  0.061906  0.046429     24.000000
  0.077382  0.061906  0.046429     48.000000
  0.092858  0.061906  0.046429     48.000000
  0.108335  0.061906  0.046429     48.000000
  0.123811  0.061906  0.046429     24.000000
  0.077382  0.077382  0.046429     24.000000
  0.092858  0.077382  0.046429     48.000000
  0.108335  0.077382  0.046429     48.000000
  0.123811  0.077382  0.046429     24.000000
  0.092858  0.092858  0.046429     24.000000
  0.108335  0.092858  0.046429     48.000000
  0.123811  0.092858  0.046429     24.000000
  0.108335  0.108335  0.046429     24.000000
  0.123811  0.108335  0.046429     24.000000
  0.123811  0.123811  0.046429      6.000000
  0.061906  0.061906  0.061906      8.000000
  0.077382  0.061906  0.061906     24.000000
  0.092858  0.061906  0.061906     24.000000
  0.108335  0.061906  0.061906     24.000000
  0.123811  0.061906  0.061906     12.000000
  0.077382  0.077382  0.061906     24.000000
  0.092858  0.077382  0.061906     48.000000
  0.108335  0.077382  0.061906     48.000000
  0.123811  0.077382  0.061906     24.000000
  0.092858  0.092858  0.061906     24.000000
  0.108335  0.092858  0.061906     48.000000
  0.123811  0.092858  0.061906     24.000000
  0.108335  0.108335  0.061906     24.000000
  0.123811  0.108335  0.061906     24.000000
  0.123811  0.123811  0.061906      6.000000
  0.077382  0.077382  0.077382      8.000000
  0.092858  0.077382  0.077382     24.000000
  0.108335  0.077382  0.077382     24.000000
  0.123811  0.077382  0.077382     12.000000
  0.092858  0.092858  0.077382     24.000000
  0.108335  0.092858  0.077382     48.000000
  0.123811  0.092858  0.077382     24.000000
  0.108335  0.108335  0.077382     24.000000
  0.123811  0.108335  0.077382     24.000000
  0.123811  0.123811  0.077382      6.000000
  0.092858  0.092858  0.092858      8.000000
  0.108335  0.092858  0.092858     24.000000
  0.123811  0.092858  0.092858     12.000000
  0.108335  0.108335  0.092858     24.000000
  0.123811  0.108335  0.092858     24.000000
  0.123811  0.123811  0.092858      6.000000
  0.108335  0.108335  0.108335      8.000000
  0.123811  0.108335  0.108335     12.000000
  0.123811  0.123811  0.108335      6.000000
  0.123811  0.123811  0.123811      1.000000
 


--------------------------------------------------------------------------------------------------------




 Dimension of arrays:
   k-points           NKPTS =    165   k-points in BZ     NKDIM =    165   number of bands    NBANDS=     24
   number of dos      NEDOS =    301   number of ions     NIONS =      4
   non local maximal  LDIM  =      4   non local SUM 2l+1 LMDIM =      8
   total plane-waves  NPLWV =   8000
   max r-space proj   IRMAX =      1   max aug-charges    IRDMAX=   4787
   dimension x,y,z NGX =    20 NGY =   20 NGZ =   20
   dimension x,y,z NGXF=    40 NGYF=   40 NGZF=   40
   support grid    NGXF=    40 NGYF=   40 NGZF=   40
   ions per type =               4
   NGX,Y,Z   is equivalent  to a cutoff of   8.15,  8.15,  8.15 a.u.
   NGXF,Y,Z  is equivalent  to a cutoff of  16.30, 16.30, 16.30 a.u.

 SYSTEM =  unknown system                          
 POSCAR =  Al4                                     

 Startparameter for this run:
   NWRITE =      2    write-flag & timer
   PREC   = normal    normal or accurate (medium, high low for compatibility)
   ISTART =      0    job   : 0-new  1-cont  2-samecut
   ICHARG =      2    charge: 1-file 2-atom 10-const
   ISPIN  =      1    spin polarized calculation?
   LNONCOLLINEAR =      F non collinear calculations
   LSORBIT =      F    spin-orbit coupling
   INIWAV =      1    electr: 0-lowe 1-rand  2-diag
   LASPH  =      F    aspherical Exc in radial PAW
 Electronic Relaxation 1
   ENCUT  =  400.0 eV  29.40 Ry    5.42 a.u.   6.65  6.65  6.65*2*pi/ulx,y,z
   ENINI  =  400.0     initial cutoff
   ENAUG  =  291.1 eV  augmentation charge cutoff
   NELM   =     60;   NELMIN=  2; NELMDL= -5     # of ELM steps 
   EDIFF  = 0.1E-04   stopping-criterion for ELM
   LREAL  =      F    real-space projection
   NLSPLINE    = F    spline interpolate recip. space projectors
   LCOMPAT=      F    compatible to vasp.4.4
   GGA_COMPAT  = T    GGA compatible to vasp.4.4-vasp.4.6
   LMAXPAW     = -100 max onsite density
   LMAXMIX     =    2 max onsite mixed and CHGCAR
   VOSKOWN=      0    Vosko Wilk Nusair interpolation
   ROPT   =    0.00000
 Ionic relaxation
   EDIFFG = -.1E-01   stopping-criterion for IOM
   NSW    =    100    number of steps for IOM
   NBLOCK =      1;   KBLOCK =    100    inner block; outer block 
   IBRION =      2    ionic relax: 0-MD 1-quasi-New 2-CG
   NFREE  =      1    steps in history (QN), initial steepest desc. (CG)
   ISIF   =      4    stress and relaxation
   IWAVPR =     11    prediction:  0-non 1-charg 2-wave 3-comb
   ISYM   =      2    0-nonsym 1-usesym 2-fastsym
   LCORR  =      T    Harris-Foulkes like correction to forces

   POTIM  = 0.5000    time-step for ionic-motion
   TEIN   =    0.0    initial temperature
   TEBEG  =    0.0;   TEEND  =   0.0 temperature during run
   SMASS  =  -3.00    Nose mass-parameter (am)
   estimated Nose-frequenzy (Omega)   =  0.10E-29 period in steps = 0.13E+47 mass=  -0.380E-27a.u.
   SCALEE = 1.0000    scale energy and forces
   NPACO  =    256;   APACO  = 10.0  distance and # of slots for P.C.
   PSTRESS=    0.0 pullay stress

  Mass of Ions in am
   POMASS =  26.98
  Ionic Valenz
   ZVAL   =   3.00
  Atomic Wigner-Seitz radii
   RWIGS  =  -1.00
  virtual crystal weights 
   VCA    =   1.00
   NELECT =      12.0000    total number of electrons
   NUPDOWN=      -1.0000    fix difference up-down

 DOS related values:
   EMIN   =  10.00;   EMAX   =-10.00  energy-range for DOS
   EFERMI =   0.00
   ISMEAR =     0;   SIGMA  =   0.05  broadening in eV -4-tet -1-fermi 0-gaus

 Electronic relaxation 2 (details)
   IALGO  =     38    algorithm
   LDIAG  =      T    sub-space diagonalisation (order eigenvalues)
   LSUBROT=      F    optimize rotation matrix (better conditioning)
   TURBO    =      0    0=normal 1=particle mesh
   IRESTART =      0    0=no restart 2=restart with 2 vectors
   NREBOOT  =      0    no. of reboots
   NMIN     =      0    reboot dimension
   EREF     =   0.00    reference energy to select bands
   IMIX   =      4    mixing-type and parameters
     AMIX     =   0.40;   BMIX     =  1.00
     AMIX_MAG =   1.60;   BMIX_MAG =  1.00
     AMIN     =   0.10
     WC   =   100.;   INIMIX=   1;  MIXPRE=   1;  MAXMIX= -45

 Intra band minimization:
   WEIMIN = 0.0010     energy-eigenvalue tresh-hold
   EBREAK =  0.10E-06  absolut break condition
   DEPER  =   0.30     relativ break condition  

   TIME   =   0.40     timestep for ELM

  volume/ion in A,a.u.               =      16.96       114.48
  Fermi-wavevector in a.u.,A,eV,Ry     =   0.918903  1.736475 11.488531  0.844383
  Thomas-Fermi vector in A             =   2.044037
 
 Write flags
   LWAVE        =      T    write WAVECAR
   LDOWNSAMPLE  =      F    k-point downsampling of WAVECAR
   LCHARG       =      T    write CHGCAR
   LVTOT        =      F    write LOCPOT, total local potential
   LVHAR        =      F    write LOCPOT, Hartree potential only
   LELF         =      F    write electronic localiz. function (ELF)
   LORBIT       =      0    0 simple, 1 ext, 2 COOP (PROOUT), +10 PAW based schemes


 Dipole corrections
   LMONO  =      F    monopole corrections only (constant potential shift)
   LDIPOL =      F    correct potential (dipole corrections)
   IDIPOL =      0    1-x, 2-y, 3-z, 4-all directions 
   EPSILON=  1.0000000 bulk dielectric constant

 Exchange correlation treatment:
   GGA     =    --    GGA type
   LEXCH   =     8    internal setting for exchange type
   LIBXC   =     F    Libxc                    
   VOSKOWN =     0    Vosko Wilk Nusair interpolation
   LHFCALC =     F    Hartree Fock is set to
   LHFONE  =     F    Hartree Fock one center treatment
   AEXX    =    0.0000 exact exchange contribution

 Linear response parameters
   LEPSILON=     F    determine dielectric tensor
   LRPA    =     F    only Hartree local field effects (RPA)
   LNABLA  =     F    use nabla operator in PAW spheres
   LVEL    =     F    velocity operator in full k-point grid
   CSHIFT  =0.1000    complex shift for real part using Kramers Kronig
   OMEGAMAX=  -1.0    maximum frequency
   DEG_THRESHOLD= 0.2000000E-02 threshold for treating states as degnerate
   RTIME   =   -0.100 relaxation time in fs
  (WPLASMAI=    0.000 imaginary part of plasma frequency in eV, 0.658/RTIME)
   DFIELD  = 0.0000000 0.0000000 0.0000000 field for delta impulse in time
 
  Optional k-point grid parameters
   LKPOINTS_OPT  =     F    use optional k-point grid
   KPOINTS_OPT_MODE=     1    mode for optional k-point grid
 
 Orbital magnetization related:
   ORBITALMAG=     F  switch on orbital magnetization
   LCHIMAG   =     F  perturbation theory with respect to B field
   DQ        =  0.001000  dq finite difference perturbation B field
   LLRAUG    =     F  two centre corrections for induced B field



--------------------------------------------------------------------------------------------------------


 conjugate gradient relaxation of ions
 charge density and potential will be updated during run
 non-spin polarized calculation
 Variant of blocked Davidson
 Davidson routine will perform the subspace rotation
 perform sub-space diagonalisation
    after iterative eigenvector-optimisation
 modified Broyden-mixing scheme, WC =      100.0
 initial mixing is a Kerker type mixing with AMIX =  0.4000 and BMIX =      1.0000
 Hartree-type preconditioning will be used
 using additional bands           18
 reciprocal scheme for non local part
 use partial core corrections
 calculate Harris-corrections to forces 
   (improved forces if not selfconsistent)
 use gradient corrections 
 use of overlap-Matrix (Vanderbilt PP)
 Gauss-broadening in eV      SIGMA  =   0.05


--------------------------------------------------------------------------------------------------------


  energy-cutoff  :      400.00
  volume of cell :       67.86
      direct lattice vectors                 reciprocal lattice vectors
     4.078797301  0.000000000  0.000000000     0.245170310  0.000000000  0.000000000
     0.000000000  4.078797301  0.000000000     0.000000000  0.245170310  0.000000000
     0.000000000  0.000000000  4.078797301     0.000000000  0.000000000  0.245170310

  length of vectors
     4.078797301  4.078797301  4.078797301     0.245170310  0.245170310  0.245170310


 
 k-points in units of 2pi/SCALE and weight: k-points                                
   0.00000000  0.00000000  0.00000000       0.000
   0.01547638  0.00000000  0.00000000       0.001
   0.03095275  0.00000000  0.00000000       0.001
   0.04642913  0.00000000  0.00000000       0.001
   0.06190550  0.00000000  0.00000000       0.001
   0.07738188  0.00000000  0.00000000       0.001
   0.09285826  0.00000000  0.00000000       0.001
   0.10833463  0.00000000  0.00000000       0.001
   0.12381101  0.00000000  0.00000000       0.001
   0.01547638  0.01547638  0.00000000       0.003
   0.03095275  0.01547638  0.00000000       0.006
   0.04642913  0.01547638  0.00000000       0.006
   0.06190550  0.01547638  0.00000000       0.006
   0.07738188  0.01547638  0.00000000       0.006
   0.09285826  0.01547638  0.00000000       0.006
   0.10833463  0.01547638  0.00000000       0.006
   0.12381101  0.01547638  0.00000000       0.003
   0.03095275  0.03095275  0.00000000       0.003
   0.04642913  0.03095275  0.00000000       0.006
   0.06190550  0.03095275  0.00000000       0.006
   0.07738188  0.03095275  0.00000000       0.006
   0.09285826  0.03095275  0.00000000       0.006
   0.10833463  0.03095275  0.00000000       0.006
   0.12381101  0.03095275  0.00000000       0.003
   0.04642913  0.04642913  0.00000000       0.003
   0.06190550  0.04642913  0.00000000       0.006
   0.07738188  0.04642913  0.00000000       0.006
   0.09285826  0.04642913  0.00000000       0.006
   0.10833463  0.04642913  0.00000000       0.006
   0.12381101  0.04642913  0.00000000       0.003
   0.06190550  0.06190550  0.00000000       0.003
   0.07738188  0.06190550  0.00000000       0.006
   0.09285826  0.06190550  0.00000000       0.006
   0.10833463  0.06190550  0.00000000       0.006
   0.12381101  0.06190550  0.00000000       0.003
   0.07738188  0.07738188  0.00000000       0.003
   0.09285826  0.07738188  0.00000000       0.006
   0.10833463  0.07738188  0.00000000       0.006
   0.12381101  0.07738188  0.00000000       0.003
   0.09285826  0.09285826  0.00000000       0.003
   0.10833463  0.09285826  0.00000000       0.006
   0.12381101  0.09285826  0.00000000       0.003
   0.10833463  0.10833463  0.00000000       0.003
   0.12381101  0.10833463  0.00000000       0.003
   0.12381101  0.12381101  0.00000000       0.001
   0.01547638  0.01547638  0.01547638       0.002
   0.03095275  0.01547638  0.01547638       0.006
   0.04642913  0.01547638  0.01547638       0.006
   0.06190550  0.01547638  0.01547638       0.006
   0.07738188  0.01547638  0.01547638       0.006
   0.09285826  0.01547638  0.01547638       0.006
   0.10833463  0.01547638  0.01547638       0.006
   0.12381101  0.01547638  0.01547638       0.003
   0.03095275  0.03095275  0.01547638       0.006
   0.04642913  0.03095275  0.01547638       0.012
   0.06190550  0.03095275  0.01547638       0.012
   0.07738188  0.03095275  0.01547638       0.012
   0.09285826  0.03095275  0.01547638       0.012
   0.10833463  0.03095275  0.01547638       0.012
   0.12381101  0.03095275  0.01547638       0.006
   0.04642913  0.04642913  0.01547638       0.006
   0.06190550  0.04642913  0.01547638       0.012
   0.07738188  0.04642913  0.01547638       0.012
   0.09285826  0.04642913  0.01547638       0.012
   0.10833463  0.04642913  0.01547638       0.012
   0.12381101  0.04642913  0.01547638       0.006
   0.06190550  0.06190550  0.01547638       0.006
   0.07738188  0.06190550  0.01547638       0.012
   0.09285826  0.06190550  0.01547638       0.012
   0.10833463  0.06190550  0.01547638       0.012
   0.12381101  0.06190550  0.01547638       0.006
   0.07738188  0.07738188  0.01547638       0.006
   0.09285826  0.07738188  0.01547638       0.012
   0.10833463  0.07738188  0.01547638       0.012
   0.12381101  0.07738188  0.01547638       0.006
   0.09285826  0.09285826  0.01547638       0.006
   0.10833463  0.09285826  0.01547638       0.012
   0.12381101  0.09285826  0.01547638       0.006
   0.10833463  0.10833463  0.01547638       0.006
   0.12381101  0.10833463  0.01547638       0.006
   0.12381101  0.12381101  0.01547638       0.001
   0.03095275  0.03095275  0.03095275       0.002
   0.04642913  0.03095275  0.03095275       0.006
   0.06190550  0.03095275  0.03095275       0.006
   0.07738188  0.03095275  0.03095275       0.006
   0.09285826  0.03095275  0.03095275       0.006
   0.10833463  0.03095275  0.03095275       0.006
   0.12381101  0.03095275  0.03095275       0.003
   0.04642913  0.04642913  0.03095275       0.006
   0.06190550  0.04642913  0.03095275       0.012
   0.07738188  0.04642913  0.03095275       0.012
   0.09285826  0.04642913  0.03095275       0.012
   0.10833463  0.04642913  0.03095275       0.012
   0.12381101  0.04642913  0.03095275       0.006
   0.06190550  0.06190550  0.03095275       0.006
   0.07738188  0.06190550  0.03095275       0.012
   0.09285826  0.06190550  0.03095275       0.012
   0.10833463  0.06190550  0.03095275       0.012
   0.12381101  0.06190550  0.03095275       0.006
   0.07738188  0.07738188  0.03095275       0.006
   0.09285826  0.07738188  0.03095275       0.012
   0.10833463  0.07738188  0.03095275       0.012
   0.12381101  0.07738188  0.03095275       0.006
   0.09285826  0.09285826  0.03095275       0.006
   0.10833463  0.09285826  0.03095275       0.012
   0.12381101  0.09285826  0.03095275       0.006
   0.10833463  0.10833463  0.03095275       0.006
   0.12381101  0.10833463  0.03095275       0.006
   0.12381101  0.12381101  0.03095275       0.001
   0.04642913  0.04642913  0.04642913       0.002
   0.06190550  0.04642913  0.04642913       0.006
   0.07738188  0.04642913  0.04642913       0.006
   0.09285826  0.04642913  0.04642913       0.006
   0.10833463  0.04642913  0.04642913       0.006
   0.12381101  0.04642913  0.04642913       0.003
   0.06190550  0.06190550  0.04642913       0.006
   0.07738188  0.06190550  0.04642913       0.012
   0.09285826  0.06190550  0.04642913       0.012
   0.10833463  0.06190550  0.04642913       0.012
   0.12381101  0.06190550  0.04642913       0.006
   0.07738188  0.07738188  0.04642913       0.006
   0.09285826  0.07738188  0.04642913       0.012
   0.10833463  0.07738188  0.04642913       0.012
   0.12381101  0.07738188  0.04642913       0.006
   0.09285826  0.09285826  0.04642913       0.006
   0.10833463  0.09285826  0.04642913       0.012
   0.12381101  0.09285826  0.04642913       0.006
   0.10833463  0.10833463  0.04642913       0.006
   0.12381101  0.10833463  0.04642913       0.006
   0.12381101  0.12381101  0.04642913       0.001
   0.06190550  0.06190550  0.06190550       0.002
   0.07738188  0.06190550  0.06190550       0.006
   0.09285826  0.06190550  0.06190550       0.006
   0.10833463  0.06190550  0.06190550       0.006
   0.12381101  0.06190550  0.06190550       0.003
   0.07738188  0.07738188  0.06190550       0.006
   0.09285826  0.07738188  0.06190550       0.012
   0.10833463  0.07738188  0.06190550       0.012
   0.12381101  0.07738188  0.06190550       0.006
   0.09285826  0.09285826  0.06190550       0.006
   0.10833463  0.09285826  0.06190550       0.012
   0.12381101  0.09285826  0.06190550       0.006
   0.10833463  0.10833463  0.06190550       0.006
   0.12381101  0.10833463  0.06190550       0.006
   0.12381101  0.12381101  0.06190550       0.001
   0.07738188  0.07738188  0.07738188       0.002
   0.09285826  0.07738188  0.07738188       0.006
   0.10833463  0.07738188  0.07738188       0.006
   0.12381101  0.07738188  0.07738188       0.003
   0.09285826  0.09285826  0.07738188       0.006
   0.10833463  0.09285826  0.07738188       0.012
   0.12381101  0.09285826  0.07738188       0.006
   0.10833463  0.10833463  0.07738188       0.006
   0.12381101  0.10833463  0.07738188       0.006
   0.12381101  0.12381101  0.07738188       0.001
   0.09285826  0.09285826  0.09285826       0.002
   0.10833463  0.09285826  0.09285826       0.006
   0.12381101  0.09285826  0.09285826       0.003
   0.10833463  0.10833463  0.09285826       0.006
   0.12381101  0.10833463  0.09285826       0.006
   0.12381101  0.12381101  0.09285826       0.001
   0.10833463  0.10833463  0.10833463       0.002
   0.12381101  0.10833463  0.10833463       0.003
   0.12381101  0.12381101  0.10833463       0.001
   0.12381101  0.12381101  0.12381101       0.000
 
 k-points in reciprocal lattice and weights: k-points                                
   0.00000000  0.00000000  0.00000000       0.000
   0.06250000  0.00000000  0.00000000       0.001
   0.12500000  0.00000000  0.00000000       0.001
   0.18750000  0.00000000  0.00000000       0.001
   0.25000000  0.00000000  0.00000000       0.001
   0.31250000  0.00000000  0.00000000       0.001
   0.37500000  0.00000000  0.00000000       0.001
   0.43750000  0.00000000  0.00000000       0.001
   0.50000000  0.00000000  0.00000000       0.001
   0.06250000  0.06250000  0.00000000       0.003
   0.12500000  0.06250000  0.00000000       0.006
   0.18750000  0.06250000  0.00000000       0.006
   0.25000000  0.06250000  0.00000000       0.006
   0.31250000  0.06250000  0.00000000       0.006
   0.37500000  0.06250000  0.00000000       0.006
   0.43750000  0.06250000  0.00000000       0.006
   0.50000000  0.06250000  0.00000000       0.003
   0.12500000  0.12500000  0.00000000       0.003
   0.18750000  0.12500000  0.00000000       0.006
   0.25000000  0.12500000  0.00000000       0.006
   0.31250000  0.12500000  0.00000000       0.006
   0.37500000  0.12500000  0.00000000       0.006
   0.43750000  0.12500000  0.00000000       0.006
   0.50000000  0.12500000  0.00000000       0.003
   0.18750000  0.18750000  0.00000000       0.003
   0.25000000  0.18750000  0.00000000       0.006
   0.31250000  0.18750000  0.00000000       0.006
   0.37500000  0.18750000  0.00000000       0.006
   0.43750000  0.18750000  0.00000000       0.006
   0.50000000  0.18750000  0.00000000       0.003
   0.25000000  0.25000000  0.00000000       0.003
   0.31250000  0.25000000  0.00000000       0.006
   0.37500000  0.25000000  0.00000000       0.006
   0.43750000  0.25000000  0.00000000       0.006
   0.50000000  0.25000000  0.00000000       0.003
   0.31250000  0.31250000  0.00000000       0.003
   0.37500000  0.31250000  0.00000000       0.006
   0.43750000  0.31250000  0.00000000       0.006
   0.50000000  0.31250000  0.00000000       0.003
   0.37500000  0.37500000  0.00000000       0.003
   0.43750000  0.37500000  0.00000000       0.006
   0.50000000  0.37500000  0.00000000       0.003
   0.43750000  0.43750000  0.00000000       0.003
   0.50000000  0.43750000  0.00000000       0.003
   0.50000000  0.50000000  0.00000000       0.001
   0.06250000  0.06250000  0.06250000       0.002
   0.12500000  0.06250000  0.06250000       0.006
   0.18750000  0.06250000  0.06250000       0.006
   0.25000000  0.06250000  0.06250000       0.006
   0.31250000  0.06250000  0.06250000       0.006
   0.37500000  0.06250000  0.06250000       0.006
   0.43750000  0.06250000  0.06250000       0.006
   0.50000000  0.06250000  0.06250000       0.003
   0.12500000  0.12500000  0.06250000       0.006
   0.18750000  0.12500000  0.06250000       0.012
   0.25000000  0.12500000  0.06250000       0.012
   0.31250000  0.12500000  0.06250000       0.012
   0.37500000  0.12500000  0.06250000       0.012
   0.43750000  0.12500000  0.06250000       0.012
   0.50000000  0.12500000  0.06250000       0.006
   0.18750000  0.18750000  0.06250000       0.006
   0.25000000  0.18750000  0.06250000       0.012
   0.31250000  0.18750000  0.06250000       0.012
   0.37500000  0.18750000  0.06250000       0.012
   0.43750000  0.18750000  0.06250000       0.012
   0.50000000  0.18750000  0.06250000       0.006
   0.25000000  0.25000000  0.06250000       0.006
   0.31250000  0.25000000  0.06250000       0.012
   0.37500000  0.25000000  0.06250000       0.012
   0.43750000  0.25000000  0.06250000       0.012
   0.50000000  0.25000000  0.06250000       0.006
   0.31250000  0.31250000  0.06250000       0.006
   0.37500000  0.31250000  0.06250000       0.012
   0.43750000  0.31250000  0.06250000       0.012
   0.50000000  0.31250000  0.06250000       0.006
   0.37500000  0.37500000  0.06250000       0.006
   0.43750000  0.37500000  0.06250000       0.012
   0.50000000  0.37500000  0.06250000       0.006
   0.43750000  0.43750000  0.06250000       0.006
   0.50000000  0.43750000  0.06250000       0.006
   0.50000000  0.50000000  0.06250000       0.001
   0.12500000  0.12500000  0.12500000       0.002
   0.18750000  0.12500000  0.12500000       0.006
   0.25000000  0.12500000  0.12500000       0.006
   0.31250000  0.12500000  0.12500000       0.006
   0.37500000  0.12500000  0.12500000       0.006
   0.43750000  0.12500000  0.12500000       0.006
   0.50000000  0.12500000  0.12500000       0.003
   0.18750000  0.18750000  0.12500000       0.006
   0.25000000  0.18750000  0.12500000       0.012
   0.31250000  0.18750000  0.12500000       0.012
   0.37500000  0.18750000  0.12500000       0.012
   0.43750000  0.18750000  0.12500000       0.012
   0.50000000  0.18750000  0.12500000       0.006
   0.25000000  0.25000000  0.12500000       0.006
   0.31250000  0.25000000  0.12500000       0.012
   0.37500000  0.25000000  0.12500000       0.012
   0.43750000  0.25000000  0.12500000       0.012
   0.50000000  0.25000000  0.12500000       0.006
   0.31250000  0.31250000  0.12500000       0.006
   0.37500000  0.31250000  0.12500000       0.012
   0.43750000  0.31250000  0.12500000       0.012
   0.50000000  0.31250000  0.12500000       0.006
   0.37500000  0.37500000  0.12500000       0.006
   0.43750000  0.37500000  0.12500000       0.012
   0.50000000  0.37500000  0.12500000       0.006
   0.43750000  0.43750000  0.12500000       0.006
   0.50000000  0.43750000  0.12500000       0.006
   0.50000000  0.50000000  0.12500000       0.001
   0.18750000  0.18750000  0.18750000       0.002
   0.25000000  0.18750000  0.18750000       0.006
   0.31250000  0.18750000  0.18750000       0.006
   0.37500000  0.18750000  0.18750000       0.006
   0.43750000  0.18750000  0.18750000       0.006
   0.50000000  0.18750000  0.18750000       0.003
   0.25000000  0.25000000  0.18750000       0.006
   0.31250000  0.25000000  0.18750000       0.012
   0.37500000  0.25000000  0.18750000       0.012
   0.43750000  0.25000000  0.18750000       0.012
   0.50000000  0.25000000  0.18750000       0.006
   0.31250000  0.31250000  0.18750000       0.006
   0.37500000  0.31250000  0.18750000       0.012
   0.43750000  0.31250000  0.18750000       0.012
   0.50000000  0.31250000  0.18750000       0.006
   0.37500000  0.37500000  0.18750000       0.006
   0.43750000  0.37500000  0.18750000       0.012
   0.50000000  0.37500000  0.18750000       0.006
   0.43750000  0.43750000  0.18750000       0.006
   0.50000000  0.43750000  0.18750000       0.006
   0.50000000  0.50000000  0.18750000       0.001
   0.25000000  0.25000000  0.25000000       0.002
   0.31250000  0.25000000  0.25000000       0.006
   0.37500000  0.25000000  0.25000000       0.006
   0.43750000  0.25000000  0.25000000       0.006
   0.50000000  0.25000000  0.25000000       0.003
   0.31250000  0.31250000  0.25000000       0.006
   0.37500000  0.31250000  0.25000000       0.012
   0.43750000  0.31250000  0.25000000       0.012
   0.50000000  0.31250000  0.25000000       0.006
   0.37500000  0.37500000  0.25000000       0.006
   0.43750000  0.37500000  0.25000000       0.012
   0.50000000  0.37500000  0.25000000       0.006
   0.43750000  0.43750000  0.25000000       0.006
   0.50000000  0.43750000  0.25000000       0.006
   0.50000000  0.50000000  0.25000000       0.001
   0.31250000  0.31250000  0.31250000       0.002
   0.37500000  0.31250000  0.31250000       0.006
   0.43750000  0.31250000  0.31250000       0.006
   0.50000000  0.31250000  0.31250000       0.003
   0.37500000  0.37500000  0.31250000       0.006
   0.43750000  0.37500000  0.31250000       0.012
   0.50000000  0.37500000  0.31250000       0.006
   0.43750000  0.43750000  0.31250000       0.006
   0.50000000  0.43750000  0.31250000       0.006
   0.50000000  0.50000000  0.31250000       0.001
   0.37500000  0.37500000  0.37500000       0.002
   0.43750000  0.37500000  0.37500000       0.006
   0.50000000  0.37500000  0.37500000       0.003
   0.43750000  0.43750000  0.37500000       0.006
   0.50000000  0.43750000  0.37500000       0.006
   0.50000000  0.50000000  0.37500000       0.001
   0.43750000  0.43750000  0.43750000       0.002
   0.50000000  0.43750000  0.43750000       0.003
   0.50000000  0.50000000  0.43750000       0.001
   0.50000000  0.50000000  0.50000000       0.000
 
 position of ions in fractional coordinates (direct lattice) 
   0.00000000  0.00000000  0.00000000
   0.00000000  0.50000000  0.50000000
   0.50000000  0.00000000  0.50000000
   0.50000000  0.50000000  0.00000000
 
 position of ions in cartesian coordinates  (Angst):
   0.00000000  0.00000000  0.00000000
   0.00000000  2.03939865  2.03939865
   2.03939865  0.00000000  2.03939865
   2.03939865  2.03939865  0.00000000
 


--------------------------------------------------------------------------------------------------------


 k-point   1 :   0.0000 0.0000 0.0000  plane waves:    1237
 k-point   2 :   0.0625 0.0000 0.0000  plane waves:    1225
 k-point   3 :   0.1250 0.0000 0.0000  plane waves:    1241
 k-point   4 :   0.1875 0.0000 0.0000  plane waves:    1253
 k-point   5 :   0.2500 0.0000 0.0000  plane waves:    1245
 k-point   6 :   0.3125 0.0000 0.0000  plane waves:    1237
 k-point   7 :   0.3750 0.0000 0.0000  plane waves:    1230
 k-point   8 :   0.4375 0.0000 0.0000  plane waves:    1230
 k-point   9 :   0.5000 0.0000 0.0000  plane waves:    1222
 k-point  10 :   0.0625 0.0625 0.0000  plane waves:    1237
 k-point  11 :   0.1250 0.0625 0.0000  plane waves:    1242
 k-point  12 :   0.1875 0.0625 0.0000  plane waves:    1254
 k-point  13 :   0.2500 0.0625 0.0000  plane waves:    1244
 k-point  14 :   0.3125 0.0625 0.0000  plane waves:    1230
 k-point  15 :   0.3750 0.0625 0.0000  plane waves:    1221
 k-point  16 :   0.4375 0.0625 0.0000  plane waves:    1229
 k-point  17 :   0.5000 0.0625 0.0000  plane waves:    1230
 k-point  18 :   0.1250 0.1250 0.0000  plane waves:    1239
 k-point  19 :   0.1875 0.1250 0.0000  plane waves:    1252
 k-point  20 :   0.2500 0.1250 0.0000  plane waves:    1240
 k-point  21 :   0.3125 0.1250 0.0000  plane waves:    1233
 k-point  22 :   0.3750 0.1250 0.0000  plane waves:    1234
 k-point  23 :   0.4375 0.1250 0.0000  plane waves:    1224
 k-point  24 :   0.5000 0.1250 0.0000  plane waves:    1224
 k-point  25 :   0.1875 0.1875 0.0000  plane waves:    1251
 k-point  26 :   0.2500 0.1875 0.0000  plane waves:    1242
 k-point  27 :   0.3125 0.1875 0.0000  plane waves:    1227
 k-point  28 :   0.3750 0.1875 0.0000  plane waves:    1226
 k-point  29 :   0.4375 0.1875 0.0000  plane waves:    1229
 k-point  30 :   0.5000 0.1875 0.0000  plane waves:    1230
 k-point  31 :   0.2500 0.2500 0.0000  plane waves:    1243
 k-point  32 :   0.3125 0.2500 0.0000  plane waves:    1235
 k-point  33 :   0.3750 0.2500 0.0000  plane waves:    1234
 k-point  34 :   0.4375 0.2500 0.0000  plane waves:    1232
 k-point  35 :   0.5000 0.2500 0.0000  plane waves:    1234
 k-point  36 :   0.3125 0.3125 0.0000  plane waves:    1234
 k-point  37 :   0.3750 0.3125 0.0000  plane waves:    1239
 k-point  38 :   0.4375 0.3125 0.0000  plane waves:    1239
 k-point  39 :   0.5000 0.3125 0.0000  plane waves:    1236
 k-point  40 :   0.3750 0.3750 0.0000  plane waves:    1222
 k-point  41 :   0.4375 0.3750 0.0000  plane waves:    1233
 k-point  42 :   0.5000 0.3750 0.0000  plane waves:    1236
 k-point  43 :   0.4375 0.4375 0.0000  plane waves:    1222
 k-point  44 :   0.5000 0.4375 0.0000  plane waves:    1234
 k-point  45 :   0.5000 0.5000 0.0000  plane waves:    1228
 k-point  46 :   0.0625 0.0625 0.0625  plane waves:    1240
 k-point  47 :   0.1250 0.0625 0.0625  plane waves:    1244
 k-point  48 :   0.1875 0.0625 0.0625  plane waves:    1246
 k-point  49 :   0.2500 0.0625 0.0625  plane waves:    1249
 k-point  50 :   0.3125 0.0625 0.0625  plane waves:    1235
 k-point  51 :   0.3750 0.0625 0.0625  plane waves:    1222
 k-point  52 :   0.4375 0.0625 0.0625  plane waves:    1232
 k-point  53 :   0.5000 0.0625 0.0625  plane waves:    1226
 k-point  54 :   0.1250 0.1250 0.0625  plane waves:    1248
 k-point  55 :   0.1875 0.1250 0.0625  plane waves:    1249
 k-point  56 :   0.2500 0.1250 0.0625  plane waves:    1241
 k-point  57 :   0.3125 0.1250 0.0625  plane waves:    1237
 k-point  58 :   0.3750 0.1250 0.0625  plane waves:    1227
 k-point  59 :   0.4375 0.1250 0.0625  plane waves:    1230
 k-point  60 :   0.5000 0.1250 0.0625  plane waves:    1230
 k-point  61 :   0.1875 0.1875 0.0625  plane waves:    1246
 k-point  62 :   0.2500 0.1875 0.0625  plane waves:    1241
 k-point  63 :   0.3125 0.1875 0.0625  plane waves:    1230
 k-point  64 :   0.3750 0.1875 0.0625  plane waves:    1226
 k-point  65 :   0.4375 0.1875 0.0625  plane waves:    1232
 k-point  66 :   0.5000 0.1875 0.0625  plane waves:    1226
 k-point  67 :   0.2500 0.2500 0.0625  plane waves:    1232
 k-point  68 :   0.3125 0.2500 0.0625  plane waves:    1233
 k-point  69 :   0.3750 0.2500 0.0625  plane waves:    1231
 k-point  70 :   0.4375 0.2500 0.0625  plane waves:    1228
 k-point  71 :   0.5000 0.2500 0.0625  plane waves:    1232
 k-point  72 :   0.3125 0.3125 0.0625  plane waves:    1236
 k-point  73 :   0.3750 0.3125 0.0625  plane waves:    1235
 k-point  74 :   0.4375 0.3125 0.0625  plane waves:    1231
 k-point  75 :   0.5000 0.3125 0.0625  plane waves:    1236
 k-point  76 :   0.3750 0.3750 0.0625  plane waves:    1232
 k-point  77 :   0.4375 0.3750 0.0625  plane waves:    1235
 k-point  78 :   0.5000 0.3750 0.0625  plane waves:    1234
 k-point  79 :   0.4375 0.4375 0.0625  plane waves:    1228
 k-point  80 :   0.5000 0.4375 0.0625  plane waves:    1234
 k-point  81 :   0.5000 0.5000 0.0625  plane waves:    1236
 k-point  82 :   0.1250 0.1250 0.1250  plane waves:    1240
 k-point  83 :   0.1875 0.1250 0.1250  plane waves:    1242
 k-point  84 :   0.2500 0.1250 0.1250  plane waves:    1242
 k-point  85 :   0.3125 0.1250 0.1250  plane waves:    1235
 k-point  86 :   0.3750 0.1250 0.1250  plane waves:    1228
 k-point  87 :   0.4375 0.1250 0.1250  plane waves:    1230
 k-point  88 :   0.5000 0.1250 0.1250  plane waves:    1218
 k-point  89 :   0.1875 0.1875 0.1250  plane waves:    1241
 k-point  90 :   0.2500 0.1875 0.1250  plane waves:    1236
 k-point  91 :   0.3125 0.1875 0.1250  plane waves:    1233
 k-point  92 :   0.3750 0.1875 0.1250  plane waves:    1231
 k-point  93 :   0.4375 0.1875 0.1250  plane waves:    1236
 k-point  94 :   0.5000 0.1875 0.1250  plane waves:    1232
 k-point  95 :   0.2500 0.2500 0.1250  plane waves:    1232
 k-point  96 :   0.3125 0.2500 0.1250  plane waves:    1228
 k-point  97 :   0.3750 0.2500 0.1250  plane waves:    1229
 k-point  98 :   0.4375 0.2500 0.1250  plane waves:    1230
 k-point  99 :   0.5000 0.2500 0.1250  plane waves:    1232
 k-point 100 :   0.3125 0.3125 0.1250  plane waves:    1232
 k-point 101 :   0.3750 0.3125 0.1250  plane waves:    1227
 k-point 102 :   0.4375 0.3125 0.1250  plane waves:    1231
 k-point 103 :   0.5000 0.3125 0.1250  plane waves:    1236
 k-point 104 :   0.3750 0.3750 0.1250  plane waves:    1230
 k-point 105 :   0.4375 0.3750 0.1250  plane waves:    1234
 k-point 106 :   0.5000 0.3750 0.1250  plane waves:    1240
 k-point 107 :   0.4375 0.4375 0.1250  plane waves:    1230
 k-point 108 :   0.5000 0.4375 0.1250  plane waves:    1232
 k-point 109 :   0.5000 0.5000 0.1250  plane waves:    1232
 k-point 110 :   0.1875 0.1875 0.1875  plane waves:    1232
 k-point 111 :   0.2500 0.1875 0.1875  plane waves:    1228
 k-point 112 :   0.3125 0.1875 0.1875  plane waves:    1226
 k-point 113 :   0.3750 0.1875 0.1875  plane waves:    1234
 k-point 114 :   0.4375 0.1875 0.1875  plane waves:    1227
 k-point 115 :   0.5000 0.1875 0.1875  plane waves:    1234
 k-point 116 :   0.2500 0.2500 0.1875  plane waves:    1231
 k-point 117 :   0.3125 0.2500 0.1875  plane waves:    1232
 k-point 118 :   0.3750 0.2500 0.1875  plane waves:    1236
 k-point 119 :   0.4375 0.2500 0.1875  plane waves:    1229
 k-point 120 :   0.5000 0.2500 0.1875  plane waves:    1234
 k-point 121 :   0.3125 0.3125 0.1875  plane waves:    1235
 k-point 122 :   0.3750 0.3125 0.1875  plane waves:    1229
 k-point 123 :   0.4375 0.3125 0.1875  plane waves:    1230
 k-point 124 :   0.5000 0.3125 0.1875  plane waves:    1230
 k-point 125 :   0.3750 0.3750 0.1875  plane waves:    1230
 k-point 126 :   0.4375 0.3750 0.1875  plane waves:    1234
 k-point 127 :   0.5000 0.3750 0.1875  plane waves:    1232
 k-point 128 :   0.4375 0.4375 0.1875  plane waves:    1228
 k-point 129 :   0.5000 0.4375 0.1875  plane waves:    1226
 k-point 130 :   0.5000 0.5000 0.1875  plane waves:    1232
 k-point 131 :   0.2500 0.2500 0.2500  plane waves:    1244
 k-point 132 :   0.3125 0.2500 0.2500  plane waves:    1238
 k-point 133 :   0.3750 0.2500 0.2500  plane waves:    1227
 k-point 134 :   0.4375 0.2500 0.2500  plane waves:    1230
 k-point 135 :   0.5000 0.2500 0.2500  plane waves:    1218
 k-point 136 :   0.3125 0.3125 0.2500  plane waves:    1231
 k-point 137 :   0.3750 0.3125 0.2500  plane waves:    1230
 k-point 138 :   0.4375 0.3125 0.2500  plane waves:    1224
 k-point 139 :   0.5000 0.3125 0.2500  plane waves:    1222
 k-point 140 :   0.3750 0.3750 0.2500  plane waves:    1227
 k-point 141 :   0.4375 0.3750 0.2500  plane waves:    1231
 k-point 142 :   0.5000 0.3750 0.2500  plane waves:    1232
 k-point 143 :   0.4375 0.4375 0.2500  plane waves:    1231
 k-point 144 :   0.5000 0.4375 0.2500  plane waves:    1228
 k-point 145 :   0.5000 0.5000 0.2500  plane waves:    1232
 k-point 146 :   0.3125 0.3125 0.3125  plane waves:    1226
 k-point 147 :   0.3750 0.3125 0.3125  plane waves:    1234
 k-point 148 :   0.4375 0.3125 0.3125  plane waves:    1224
 k-point 149 :   0.5000 0.3125 0.3125  plane waves:    1232
 k-point 150 :   0.3750 0.3750 0.3125  plane waves:    1230
 k-point 151 :   0.4375 0.3750 0.3125  plane waves:    1230
 k-point 152 :   0.5000 0.3750 0.3125  plane waves:    1232
 k-point 153 :   0.4375 0.4375 0.3125  plane waves:    1233
 k-point 154 :   0.5000 0.4375 0.3125  plane waves:    1232
 k-point 155 :   0.5000 0.5000 0.3125  plane waves:    1236
 k-point 156 :   0.3750 0.3750 0.3750  plane waves:    1235
 k-point 157 :   0.4375 0.3750 0.3750  plane waves:    1236
 k-point 158 :   0.5000 0.3750 0.3750  plane waves:    1220
 k-point 159 :   0.4375 0.4375 0.3750  plane waves:    1233
 k-point 160 :   0.5000 0.4375 0.3750  plane waves:    1236
 k-point 161 :   0.5000 0.5000 0.3750  plane waves:    1240
 k-point 162 :   0.4375 0.4375 0.4375  plane waves:    1253
 k-point 163 :   0.5000 0.4375 0.4375  plane waves:    1242
 k-point 164 :   0.5000 0.5000 0.4375  plane waves:    1228
 k-point 165 :   0.5000 0.5000 0.5000  plane waves:    1208

 maximum and minimum number of plane-waves per node :      1254     1208

 maximum number of plane-waves:      1254
 maximum index in each direction: 
   IXMAX=    6   IYMAX=    6   IZMAX=    6
   IXMIN=   -7   IYMIN=   -7   IZMIN=   -7


 serial   3D FFT for wavefunctions
 parallel 3D FFT for charge:
    minimum data exchange during FFTs selected (reduces bandwidth)


 total amount of memory used by VASP MPI-rank0    47641. kBytes
=======================================================================

   base      :      30000. kBytes
   nonl-proj :      13513. kBytes
   fftplans  :        147. kBytes
   grid      :        485. kBytes
   one-center:         12. kBytes
   wavefun   :       3484. kBytes
 
     INWAV:  cpu time      0.0000: real time      0.0001
 Broyden mixing: mesh for mixing (old mesh)
   NGX = 13   NGY = 13   NGZ = 13
  (NGX  = 40   NGY  = 40   NGZ  = 40)
  gives a total of   2197 points

 initial charge density was supplied:
 charge density of overlapping atoms calculated
 number of electron      12.0000000 magnetization 
 keeping initial charge density in first step


--------------------------------------------------------------------------------------------------------


 Maximum index for augmentation-charges          333 (set IRDMAX)


--------------------------------------------------------------------------------------------------------


 First call to EWALD:  gamma=   0.435
 Maximum number of real-space cells 3x 3x 3
 Maximum number of reciprocal cells 3x 3x 3

    FEWALD:  cpu time      0.0009: real time      0.0009


--------------------------------------- Iteration      1(   1)  ---------------------------------------


    POTLOK:  cpu time      0.0024: real time      0.0065
    SETDIJ:  cpu time      0.0009: real time      0.0009
     EDDAV:  cpu time      0.6327: real time      0.6394
       DOS:  cpu time      0.0006: real time      0.0006
    --------------------------------------------
      LOOP:  cpu time      0.6365: real time      0.6474

 eigenvalue-minimisations  :  7920
 total energy-change (2. order) :-0.7905173E+01  (-0.3850925E+03)
 number of electron      12.0000000 magnetization 
 augmentation part       12.0000000 magnetization 

 Free energy of the ion-electron system (eV)
  ---------------------------------------------------
  alpha Z        PSCENC =        -0.79197056
  Ewald energy   TEWEN  =      -291.35517409
  -Hartree energ DENC   =        -0.45029244
  -exchange      EXHF   =         0.00000000
  -V(xc)+E(xc)   XCENC  =      -105.15801393
  PAW double counting   =       264.80062850     -136.98248303
  entropy T*S    EENTRO =        -0.00123356
  eigenvalues    EBANDS =        47.88074848
  atomic energy  EATOM  =       214.15261729
  Solvation  Ediel_sol  =         0.00000000
  ---------------------------------------------------
  free energy    TOTEN  =        -7.90517334 eV

  energy without entropy =       -7.90393978  energy(sigma->0) =       -7.90455656


--------------------------------------------------------------------------------------------------------




--------------------------------------- Iteration      1(   2)  ---------------------------------------


     EDDAV:  cpu time      0.7862: real time      0.7910
       DOS:  cpu time      0.0005: real time      0.0005
    --------------------------------------------
      LOOP:  cpu time      0.7867: real time      0.7915

 eigenvalue-minimisations  : 11640
 total energy-change (2. order) :-0.7126524E+01  (-0.7055286E+01)
 number of electron      12.0000000 magnetization 
 augmentation part       12.0000000 magnetization 

 Free energy of the ion-electron system (eV)
  ---------------------------------------------------
  alpha Z        PSCENC =        -0.79197056
  Ewald energy   TEWEN  =      -291.35517409
  -Hartree energ DENC   =        -0.45029244
  -exchange      EXHF   =         0.00000000
  -V(xc)+E(xc)   XCENC  =      -105.15801393
  PAW double counting   =       264.80062850     -136.98248303
  entropy T*S    EENTRO =        -0.00187056
  eigenvalues    EBANDS =        40.75486141
  atomic energy  EATOM  =       214.15261729
  Solvation  Ediel_sol  =         0.00000000
  ---------------------------------------------------
  free energy    TOTEN  =       -15.03169740 eV

  energy without entropy =      -15.02982684  energy(sigma->0) =      -15.03076212


--------------------------------------------------------------------------------------------------------




--------------------------------------- Iteration      1(   3)  ---------------------------------------


     EDDAV:  cpu time      0.7258: real time      0.7295
       DOS:  cpu time      0.0005: real time      0.0005
    --------------------------------------------
      LOOP:  cpu time      0.7263: real time      0.7300

 eigenvalue-minimisations  : 10656
 total energy-change (2. order) :-0.3050636E-01  (-0.3050300E-01)
 number of electron      12.0000000 magnetization 
 augmentation part       12.0000000 magnetization 

 Free energy of the ion-electron system (eV)
  ---------------------------------------------------
  alpha Z        PSCENC =        -0.79197056
  Ewald energy   TEWEN  =      -291.35517409
  -Hartree energ DENC   =        -0.45029244
  -exchange      EXHF   =         0.00000000
  -V(xc)+E(xc)   XCENC  =      -105.15801393
  PAW double counting   =       264.80062850     -136.98248303
  entropy T*S    EENTRO =        -0.00189060
  eigenvalues    EBANDS =        40.72437510
  atomic energy  EATOM  =       214.15261729
  Solvation  Ediel_sol  =         0.00000000
  ---------------------------------------------------
  free energy    TOTEN  =       -15.06220376 eV

  energy without entropy =      -15.06031315  energy(sigma->0) =      -15.06125845


--------------------------------------------------------------------------------------------------------




--------------------------------------- Iteration      1(   4)  ---------------------------------------


     EDDAV:  cpu time      1.0585: real time      1.0636
       DOS:  cpu time      0.0005: real time      0.0005
    --------------------------------------------
      LOOP:  cpu time      1.0590: real time      1.0641

 eigenvalue-minimisations  : 13704
 total energy-change (2. order) :-0.4843894E-04  (-0.4843851E-04)
 number of electron      12.0000000 magnetization 
 augmentation part       12.0000000 magnetization 

 Free energy of the ion-electron system (eV)
  ---------------------------------------------------
  alpha Z        PSCENC =        -0.79197056
  Ewald energy   TEWEN  =      -291.35517409
  -Hartree energ DENC   =        -0.45029244
  -exchange      EXHF   =         0.00000000
  -V(xc)+E(xc)   XCENC  =      -105.15801393
  PAW double counting   =       264.80062850     -136.98248303
  entropy T*S    EENTRO =        -0.00189065
  eigenvalues    EBANDS =        40.72432670
  atomic energy  EATOM  =       214.15261729
  Solvation  Ediel_sol  =         0.00000000
  ---------------------------------------------------
  free energy    TOTEN  =       -15.06225220 eV

  energy without entropy =      -15.06036155  energy(sigma->0) =      -15.06130687


--------------------------------------------------------------------------------------------------------




--------------------------------------- Iteration      1(   5)  ---------------------------------------


     EDDAV:  cpu time      0.6980: real time      0.7015
       DOS:  cpu time      0.0005: real time      0.0005
    CHARGE:  cpu time      0.0101: real time      0.0101
    MIXING:  cpu time      0.0002: real time      0.0023
    --------------------------------------------
      LOOP:  cpu time      0.7088: real time      0.7145

 eigenvalue-minimisations  : 10368
 total energy-change (2. order) :-0.1030008E-07  (-0.1077121E-07)
 number of electron      11.9999997 magnetization 
 augmentation part       -0.1502138 magnetization 

 Broyden mixing:
  rms(total) = 0.25193E+00    rms(broyden)= 0.25193E+00
  rms(prec ) = 0.46334E+00
  weight for this iteration     100.00

 Free energy of the ion-electron system (eV)
  ---------------------------------------------------
  alpha Z        PSCENC =        -0.79197056
  Ewald energy   TEWEN  =      -291.35517409
  -Hartree energ DENC   =        -0.45029244
  -exchange      EXHF   =         0.00000000
  -V(xc)+E(xc)   XCENC  =      -105.15801393
  PAW double counting   =       264.80062850     -136.98248303
  entropy T*S    EENTRO =        -0.00189065
  eigenvalues    EBANDS =        40.72432669
  atomic energy  EATOM  =       214.15261729
  Solvation  Ediel_sol  =         0.00000000
  ---------------------------------------------------
  free energy    TOTEN  =       -15.06225221 eV

  energy without entropy =      -15.06036156  energy(sigma->0) =      -15.06130688


--------------------------------------------------------------------------------------------------------




--------------------------------------- Iteration      1(   6)  ---------------------------------------


    POTLOK:  cpu time      0.0016: real time      0.0018
    SETDIJ:  cpu time      0.0008: real time      0.0008
     EDDAV:  cpu time      0.8552: real time      0.8593
       DOS:  cpu time      0.0005: real time      0.0005
    CHARGE:  cpu time      0.0099: real time      0.0099
    MIXING:  cpu time      0.0002: real time      0.0002
    --------------------------------------------
      LOOP:  cpu time      0.8682: real time      0.8724

 eigenvalue-minimisations  : 11736
 total energy-change (2. order) : 0.5105841E-01  (-0.7134375E-03)
 number of electron      11.9999997 magnetization 
 augmentation part       -0.1524692 magnetization 

 Broyden mixing:
  rms(total) = 0.14670E+00    rms(broyden)= 0.14670E+00
  rms(prec ) = 0.28397E+00
  weight for this iteration     100.00

 eigenvalues of (default mixing * dielectric matrix)
  average eigenvalue GAMMA=   2.3355
  2.3355

 Free energy of the ion-electron system (eV)
  ---------------------------------------------------
  alpha Z        PSCENC =        -0.79197056
  Ewald energy   TEWEN  =      -291.35517409
  -Hartree energ DENC   =        -0.36365328
  -exchange      EXHF   =         0.00000000
  -V(xc)+E(xc)   XCENC  =      -105.02693510
  PAW double counting   =       372.02148721     -244.20894363
  entropy T*S    EENTRO =        -0.00189712
  eigenvalues    EBANDS =        40.56327549
  atomic energy  EATOM  =       214.15261729
  Solvation  Ediel_sol  =         0.00000000
  ---------------------------------------------------
  free energy    TOTEN  =       -15.01119379 eV

  energy without entropy =      -15.00929668  energy(sigma->0) =      -15.01024523


--------------------------------------------------------------------------------------------------------




--------------------------------------- Iteration      1(   7)  ---------------------------------------


    POTLOK:  cpu time      0.0015: real time      0.0017
    SETDIJ:  cpu time      0.0007: real time      0.0007
     EDDAV:  cpu time      0.6810: real time      0.6843
       DOS:  cpu time      0.0005: real time      0.0005
    CHARGE:  cpu time      0.0102: real time      0.0102
    MIXING:  cpu time      0.0002: real time      0.0002
    --------------------------------------------
      LOOP:  cpu time      0.6941: real time      0.6976

 eigenvalue-minimisations  : 10248
 total energy-change (2. order) : 0.3727252E-01  (-0.2034153E-02)
 number of electron      11.9999997 magnetization 
 augmentation part       -0.1566836 magnetization 

 Broyden mixing:
  rms(total) = 0.25934E-01    rms(broyden)= 0.25934E-01
  rms(prec ) = 0.28085E-01
  weight for this iteration     100.00

 eigenvalues of (default mixing * dielectric matrix)
  average eigenvalue GAMMA=   2.7876
  2.7876  2.7876

 Free energy of the ion-electron system (eV)
  ---------------------------------------------------
  alpha Z        PSCENC =        -0.79197056
  Ewald energy   TEWEN  =      -291.35517409
  -Hartree energ DENC   =        -0.39202924
  -exchange      EXHF   =         0.00000000
  -V(xc)+E(xc)   XCENC  =      -104.76664430
  PAW double counting   =       581.57514674     -453.77817553
  entropy T*S    EENTRO =        -0.00187350
  eigenvalues    EBANDS =        40.38418191
  atomic energy  EATOM  =       214.15261729
  Solvation  Ediel_sol  =         0.00000000
  ---------------------------------------------------
  free energy    TOTEN  =       -14.97392128 eV

  energy without entropy =      -14.97204777  energy(sigma->0) =      -14.97298452


--------------------------------------------------------------------------------------------------------




--------------------------------------- Iteration      1(   8)  ---------------------------------------


    POTLOK:  cpu time      0.0016: real time      0.0017
    SETDIJ:  cpu time      0.0007: real time      0.0007
     EDDAV:  cpu time      1.1010: real time      1.1058
       DOS:  cpu time      0.0005: real time      0.0005
    CHARGE:  cpu time      0.0100: real time      0.0100
    MIXING:  cpu time      0.0002: real time      0.0002
    --------------------------------------------
      LOOP:  cpu time      1.1140: real time      1.1190

 eigenvalue-minimisations  : 13968
 total energy-change (2. order) : 0.1066078E-03  (-0.7941463E-05)
 number of electron      11.9999997 magnetization 
 augmentation part       -0.1570171 magnetization 

 Broyden mixing:
  rms(total) = 0.23781E-02    rms(broyden)= 0.23781E-02
  rms(prec ) = 0.39160E-02
  weight for this iteration     100.00

 eigenvalues of (default mixing * dielectric matrix)
  average eigenvalue GAMMA=   2.1226
  1.0442  2.5830  2.7405

 Free energy of the ion-electron system (eV)
  ---------------------------------------------------
  alpha Z        PSCENC =        -0.79197056
  Ewald energy   TEWEN  =      -291.35517409
  -Hartree energ DENC   =        -0.40527783
  -exchange      EXHF   =         0.00000000
  -V(xc)+E(xc)   XCENC  =      -104.74903270
  PAW double counting   =       534.71511124     -406.93055905
  entropy T*S    EENTRO =        -0.00187018
  eigenvalues    EBANDS =        40.39234121
  atomic energy  EATOM  =       214.15261729
  Solvation  Ediel_sol  =         0.00000000
  ---------------------------------------------------
  free energy    TOTEN  =       -14.97381467 eV

  energy without entropy =      -14.97194449  energy(sigma->0) =      -14.97287958


--------------------------------------------------------------------------------------------------------




--------------------------------------- Iteration      1(   9)  ---------------------------------------


    POTLOK:  cpu time      0.0016: real time      0.0017
    SETDIJ:  cpu time      0.0007: real time      0.0007
     EDDAV:  cpu time      0.7482: real time      0.7534
       DOS:  cpu time      0.0006: real time      0.0006
    --------------------------------------------
      LOOP:  cpu time      0.7511: real time      0.7564

 eigenvalue-minimisations  : 10560
 total energy-change (2. order) : 0.8112752E-05  (-0.3922128E-06)
 number of electron      11.9999997 magnetization 
 augmentation part       -0.1570171 magnetization 

 Free energy of the ion-electron system (eV)
  ---------------------------------------------------
  alpha Z        PSCENC =        -0.79197056
  Ewald energy   TEWEN  =      -291.35517409
  -Hartree energ DENC   =        -0.40693156
  -exchange      EXHF   =         0.00000000
  -V(xc)+E(xc)   XCENC  =      -104.74536111
  PAW double counting   =       538.17759128     -410.39271402
  entropy T*S    EENTRO =        -0.00186958
  eigenvalues    EBANDS =        40.39000581
  atomic energy  EATOM  =       214.15261729
  Solvation  Ediel_sol  =         0.00000000
  ---------------------------------------------------
  free energy    TOTEN  =       -14.97380656 eV

  energy without entropy =      -14.97193697  energy(sigma->0) =      -14.97287176


--------------------------------------------------------------------------------------------------------




 average (electrostatic) potential at core
  the test charge radii are     1.0406
  (the norm of the test charge is              1.0000)
       1 -72.9538       2 -72.9538       3 -72.9538       4 -72.9538
 
 
 
 E-fermi :   7.7061     XC(G=0): -10.0966     alpha+bet :-14.4692

 Fermi energy:         7.7060725131

 k-point     1 :       0.0000    0.0000    0.0000
  band No.  band energies     occupation 
      1      -3.2300      2.00000
      2       4.8574      2.00000
      3       4.8574      2.00000
      4       4.8574      2.00000
      5       6.1168      2.00000
      6       6.1168      2.00000
      7       6.1168      2.00000
      8      12.9659      0.00000
      9      12.9659      0.00000
     10      12.9659      0.00000
     11      13.1805      0.00000
     12      13.1805      0.00000
     13      13.1805      0.00000
     14      13.1805      0.00000
     15      13.1805      0.00000
     16      13.1805      0.00000
     17      16.5276      0.00000
     18      16.5276      0.00000
     19      16.5276      0.00000
     20      20.1817      0.00000
     21      20.1817      0.00000
     22      20.1817      0.00000
     23      21.4649      0.00000
     24      21.4649      0.00000

 k-point     2 :       0.0625    0.0000    0.0000
  band No.  band energies     occupation 
[...]
      5       4.2670      2.00000
      6       4.2670      2.00000
      7       6.3683      2.00000
      8       6.3683      2.00000
      9      14.6841      0.00000
     10      14.6841      0.00000
     11      15.6568      0.00000
     12      15.6568      0.00000
     13      16.4654      0.00000
     14      16.4654      0.00000
     15      17.5827      0.00000
     16      17.5827      0.00000
     17      18.9167      0.00000
     18      18.9167      0.00000
     19      19.9143      0.00000
     20      19.9143      0.00000
     21      20.7904      0.00000
     22      20.7904      0.00000
     23      21.4615      0.00000
     24      21.4615      0.00000

 k-point   153 :       0.4375    0.4375    0.3125
  band No.  band energies     occupation 
      1       0.9848      2.00000
      2       2.0615      2.00000
      3       2.0615      2.00000
      4       3.1276      2.00000
      5       4.2007      2.00000
      6       5.2535      2.00000
      7       5.2535      2.00000
      8       6.3037      2.00000
      9      14.6411      0.00000
     10      15.5627      0.00000
     11      15.5627      0.00000
     12      16.4925      0.00000
     13      16.5654      0.00000
     14      16.5654      0.00000
     15      16.8626      0.00000
     16      18.6568      0.00000
     17      18.7625      0.00000
     18      19.7213      0.00000
     19      19.7213      0.00000
     20      19.7745      0.00000
     21      20.3032      0.00000
     22      20.7659      0.00000
     23      20.7659      0.00000
     24      21.6854      0.00000

 k-point   154 :       0.5000    0.4375    0.3125
  band No.  band energies     occupation 
      1       1.4907      2.00000
      2       1.4907      2.00000
      3       2.5632      2.00000
      4       2.5632      2.00000
      5       4.6940      2.00000
      6       4.6940      2.00000
      7       5.7466      2.00000
      8       5.7466      2.00000
      9      15.0862      0.00000
     10      15.0862      0.00000
     11      16.0107      0.00000
     12      16.0107      0.00000
     13      16.8810      0.00000
     14      16.8810      0.00000
     15      17.8383      0.00000
     16      17.8383      0.00000
     17      19.4964      0.00000
     18      19.4964      0.00000
     19      19.8885      0.00000
     20      19.8885      0.00000
     21      20.3649      0.00000
     22      20.3649      0.00000
     23      20.8852      0.00000
     24      20.8852      0.00000

 k-point   155 :       0.5000    0.5000    0.3125
  band No.  band energies     occupation 
      1       1.9947      2.00000
      2       1.9947      2.00000
      3       1.9947      2.00000
      4       1.9947      2.00000
      5       5.1880      2.00000
      6       5.1880      2.00000
      7       5.1880      2.00000
      8       5.1880      2.00000
      9      15.5320      0.00000
     10      15.5320      0.00000
     11      15.5320      0.00000
     12      15.5320      0.00000
     13      17.7598      0.00000
     14      17.7598      0.00000
     15      17.7598      0.00000
     16      17.7598      0.00000
     17      19.4926      0.00000
     18      19.4926      0.00000
     19      19.4926      0.00000
     20      19.4926      0.00000
     21      20.6657      0.00000
     22      20.6657      0.00000
     23      20.6657      0.00000
     24      20.6657      0.00000

 k-point   156 :       0.3750    0.3750    0.3750
  band No.  band energies     occupation 
      1       0.4773      2.00000
      2       2.6292      2.00000
      3       2.6292      2.00000
      4       2.6292      2.00000
      5       4.7609      2.00000
      6       4.7609      2.00000
      7       4.7609      2.00000
      8       6.8600      2.00000
      9      15.1711      0.00000
     10      15.1711      0.00000
     11      15.1711      0.00000
     12      16.4123      0.00000
     13      16.4123      0.00000
     14      16.4123      0.00000
     15      18.1637      0.00000
     16      18.1637      0.00000
     17      18.1637      0.00000
     18      18.3252      0.00000
     19      18.3252      0.00000
     20      20.2581      0.00000
     21      20.2581      0.00000
     22      21.8882      0.00000
     23      22.1857      0.00000
     24      22.1857      0.00000

 k-point   157 :       0.4375    0.3750    0.3750
  band No.  band energies     occupation 
      1       0.9173      2.00000
      2       1.9944      2.00000
      3       3.0608      2.00000
      4       3.0608      2.00000
      5       4.1360      2.00000
      6       4.1360      2.00000
      7       5.1890      2.00000
      8       6.2397      2.00000
      9      15.5500      0.00000
     10      15.5500      0.00000
     11      16.3659      0.00000
     12      16.3659      0.00000
     13      16.5233      0.00000
     14      16.8018      0.00000
     15      17.7596      0.00000
     16      18.4645      0.00000
     17      18.7341      0.00000
     18      18.9608      0.00000
     19      18.9608      0.00000
     20      19.1811      0.00000
     21      20.6467      0.00000
     22      21.3328      0.00000
     23      21.3328      0.00000
     24      21.6117      0.00000

 k-point   158 :       0.5000    0.3750    0.3750
  band No.  band energies     occupation 
      1       1.4234      2.00000
      2       1.4234      2.00000
      3       3.4890      2.00000
      4       3.4890      2.00000
      5       3.6433      2.00000
      6       3.6433      2.00000
      7       5.6823      2.00000
      8       5.6823      2.00000
      9      15.8898      0.00000
     10      15.8898      0.00000
     11      16.0552      0.00000
     12      16.0552      0.00000
     13      17.2512      0.00000
     14      17.2512      0.00000
     15      17.8737      0.00000
     16      17.8737      0.00000
     17      18.7144      0.00000
     18      18.7144      0.00000
     19      19.9975      0.00000
     20      19.9975      0.00000
     21      20.3148      0.00000
     22      20.3148      0.00000
     23      21.0986      0.00000
     24      21.0986      0.00000

 k-point   159 :       0.4375    0.4375    0.3750
  band No.  band energies     occupation 
      1       1.3561      2.00000
      2       2.4297      2.00000
      3       2.4297      2.00000
      4       3.4246      2.00000
      5       3.5754      2.00000
      6       4.5636      2.00000
      7       4.5636      2.00000
      8       5.6173      2.00000
      9      15.9357      0.00000
     10      16.7305      0.00000
     11      16.7305      0.00000
     12      16.8905      0.00000
     13      16.8905      0.00000
     14      17.1927      0.00000
     15      17.6188      0.00000
     16      18.8883      0.00000
     17      18.9899      0.00000
     18      19.2060      0.00000
     19      19.2060      0.00000
     20      19.2471      0.00000
     21      20.1241      0.00000
     22      20.7792      0.00000
     23      20.7792      0.00000
     24      21.0516      0.00000

 k-point   160 :       0.5000    0.4375    0.3750
  band No.  band energies     occupation 
      1       1.8606      2.00000
      2       1.8606      2.00000
      3       2.9287      2.00000
      4       2.9287      2.00000
      5       4.0034      2.00000
      6       4.0034      2.00000
      7       5.0582      2.00000
      8       5.0582      2.00000
      9      16.3504      0.00000
     10      16.3504      0.00000
     11      17.1756      0.00000
     12      17.1756      0.00000
     13      17.2042      0.00000
     14      17.2042      0.00000
     15      18.1463      0.00000
     16      18.1463      0.00000
     17      19.3328      0.00000
     18      19.3328      0.00000
     19      19.6633      0.00000
     20      19.6633      0.00000
     21      20.2798      0.00000
     22      20.2798      0.00000
     23      20.3172      0.00000
     24      20.3172      0.00000

 k-point   161 :       0.5000    0.5000    0.3750
  band No.  band energies     occupation 
      1       2.3631      2.00000
      2       2.3631      2.00000
      3       2.3631      2.00000
      4       2.3631      2.00000
      5       4.4977      2.00000
      6       4.4977      2.00000
      7       4.4977      2.00000
      8       4.4977      2.00000
      9      16.7720      0.00000
     10      16.7720      0.00000
     11      16.7720      0.00000
     12      16.7720      0.00000
     13      18.0897      0.00000
     14      18.0897      0.00000
     15      18.0897      0.00000
     16      18.0897      0.00000
     17      19.5969      0.00000
     18      19.5969      0.00000
     19      19.5969      0.00000
     20      19.5969      0.00000
     21      20.0341      0.00000
     22      20.0341      0.00000
     23      20.0341      0.00000
     24      20.0341      0.00000

 k-point   162 :       0.4375    0.4375    0.4375
  band No.  band energies     occupation 
      1       1.7936      2.00000
      2       2.8623      2.00000
      3       2.8623      2.00000
      4       2.8623      2.00000
      5       3.9374      2.00000
      6       3.9374      2.00000
      7       3.9374      2.00000
      8       4.9929      2.00000
      9      17.2328      0.00000
     10      17.2328      0.00000
     11      17.2328      0.00000
     12      17.5826      0.00000
     13      17.5826      0.00000
     14      17.5826      0.00000
     15      18.5356      0.00000
     16      18.5356      0.00000
     17      19.0657      0.00000
     18      19.0657      0.00000
     19      19.0657      0.00000
     20      19.5218      0.00000
     21      19.5218      0.00000
     22      20.4784      0.00000
     23      20.4784      0.00000
     24      20.4784      0.00000

 k-point   163 :       0.5000    0.4375    0.4375
  band No.  band energies     occupation 
      1       2.2963      2.00000
      2       2.2963      2.00000
      3       3.2957      2.00000
      4       3.2957      2.00000
      5       3.4394      2.00000
      6       3.4394      2.00000
      7       4.4321      2.00000
      8       4.4321      2.00000
      9      17.5533      0.00000
     10      17.5533      0.00000
     11      17.5916      0.00000
     12      17.5916      0.00000
     13      18.0317      0.00000
     14      18.0317      0.00000
     15      18.4608      0.00000
     16      18.4608      0.00000
     17      19.0440      0.00000
     18      19.0440      0.00000
     19      19.6530      0.00000
     20      19.6530      0.00000
     21      19.8194      0.00000
     22      19.8194      0.00000
     23      19.9671      0.00000
     24      19.9671      0.00000

 k-point   164 :       0.5000    0.5000    0.4375
  band No.  band energies     occupation 
      1       2.7961      2.00000
      2       2.7961      2.00000
      3       2.7961      2.00000
      4       2.7961      2.00000
      5       3.8712      2.00000
      6       3.8712      2.00000
      7       3.8712      2.00000
      8       3.8712      2.00000
      9      17.9536      0.00000
     10      17.9536      0.00000
     11      17.9536      0.00000
     12      17.9536      0.00000
     13      18.4760      0.00000
     14      18.4760      0.00000
     15      18.4760      0.00000
     16      18.4760      0.00000
     17      19.4667      0.00000
     18      19.4667      0.00000
     19      19.4667      0.00000
     20      19.4667      0.00000
     21      19.4936      0.00000
     22      19.4936      0.00000
     23      19.4936      0.00000
     24      19.4936      0.00000

 k-point   165 :       0.5000    0.5000    0.5000
  band No.  band energies     occupation 
      1       3.2313      2.00000
      2       3.2313      2.00000
      3       3.2313      2.00000
      4       3.2313      2.00000
      5       3.3713      2.00000
      6       3.3713      2.00000
      7       3.3713      2.00000
      8       3.3713      2.00000
      9      18.8316      0.00000
     10      18.8316      0.00000
     11      18.8316      0.00000
     12      18.8316      0.00000
     13      18.8316      0.00000
     14      18.8316      0.00000
     15      18.8316      0.00000
     16      18.8316      0.00000
     17      19.0506      0.00000
     18      19.0506      0.00000
     19      19.0506      0.00000
     20      19.0506      0.00000
     21      19.0506      0.00000
     22      19.0506      0.00000
     23      19.0506      0.00000
     24      19.0506      0.00000


--------------------------------------------------------------------------------------------------------


 soft charge-density along one line, spin component           1
         0         1         2         3         4         5         6         7         8         9
 total charge-density along one line
 
 pseudopotential strength for first ion, spin component:           1
  8.453  14.407  -0.000   0.000  -0.000  -0.000   0.000  -0.000
 14.407  24.556  -0.000   0.000  -0.000  -0.000   0.000  -0.000
 -0.000  -0.000   1.987  -0.000  -0.000   5.730  -0.000  -0.000
  0.000   0.000  -0.000   1.987   0.000  -0.000   5.730   0.000
 -0.000  -0.000  -0.000   0.000   1.987  -0.000   0.000   5.730
 -0.000  -0.000   5.730  -0.000  -0.000  16.438  -0.000  -0.000
  0.000   0.000  -0.000   5.730   0.000  -0.000  16.438   0.000
 -0.000  -0.000  -0.000   0.000   5.730  -0.000   0.000  16.438
 total augmentation occupancy for first ion, spin component:           1
  3.222  -0.768   0.000   0.000   0.000   0.000   0.000   0.000
 -0.768   0.252   0.000   0.000   0.000   0.000   0.000   0.000
  0.000   0.000   1.074   0.000  -0.000  -0.069   0.000   0.000
  0.000   0.000   0.000   1.074   0.000   0.000  -0.069  -0.000
  0.000   0.000  -0.000  -0.000   1.074   0.000   0.000  -0.069
  0.000   0.000  -0.069   0.000   0.000   0.005  -0.000   0.000
  0.000   0.000  -0.000  -0.069   0.000   0.000   0.005   0.000
  0.000   0.000  -0.000   0.000  -0.069   0.000  -0.000   0.005


------------------------ aborting loop because EDIFF is reached ----------------------------------------


    CHARGE:  cpu time      0.0099: real time      0.0100
    FORLOC:  cpu time      0.0001: real time      0.0001
    FORNL :  cpu time      0.0254: real time      0.0255
    STRESS:  cpu time      0.2623: real time      0.2728
    FORCOR:  cpu time      0.0013: real time      0.0013
    FORHAR:  cpu time      0.0003: real time      0.0003
    MIXING:  cpu time      0.0002: real time      0.0002
    OFIELD:  cpu time      0.0000: real time      0.0000

  FORCE on cell =-STRESS in cart. coord.  units (eV):
  Direction    XX          YY          ZZ          XY          YZ          ZX
  --------------------------------------------------------------------------------------
  Alpha Z    -0.79197    -0.79197    -0.79197
  Ewald     -97.11843   -97.11843   -97.11843     0.00000     0.00000    -0.00000
  Hartree     0.13563     0.13563     0.13563    -0.00000    -0.00000    -0.00000
  E(xc)     -33.96272   -33.96272   -33.96272     0.00000     0.00000     0.00000
  Local       0.90566     0.90566     0.90566    -0.00000    -0.00000     0.00000
  n-local    73.97915    74.79093    76.57058     0.17731     0.88111     0.35578
  augment    -4.19167    -4.19167    -4.19167     0.00000    -0.00000    -0.00000
  Kinetic    56.17556    58.48614    62.30445     1.73558    -8.11392    -1.68464
  Fock        0.00000     0.00000     0.00000     0.00000     0.00000     0.00000
  -------------------------------------------------------------------------------------
  Total      -0.92124    -0.92124    -0.92124     0.00000    -0.00000     0.00000
  in kB     -21.75144   -21.75144   -21.75144     0.00000    -0.00000     0.00000
  external pressure =      -21.75 kB  Pullay stress =        0.00 kB


 VOLUME and BASIS-vectors are now :
 -----------------------------------------------------------------------------
  energy-cutoff  :      400.00
  volume of cell :       67.86
      direct lattice vectors                 reciprocal lattice vectors
     4.078797301  0.000000000  0.000000000     0.245170310  0.000000000  0.000000000
     0.000000000  4.078797301  0.000000000     0.000000000  0.245170310  0.000000000
     0.000000000  0.000000000  4.078797301     0.000000000  0.000000000  0.245170310

  length of vectors
     4.078797301  4.078797301  4.078797301     0.245170310  0.245170310  0.245170310


 FORCES acting on ions
    electron-ion (+dipol)            ewald-force                    non-local-force                 convergence-correction
 -----------------------------------------------------------------------------------------------
   0.259E-14 -.304E-15 0.767E-14   -.285E-15 0.178E-16 0.465E-15   0.303E-24 -.140E-24 0.141E-23   0.821E-15 -.313E-17 0.198E-14
   0.620E-14 -.213E-14 -.247E-14   -.220E-15 -.879E-15 0.360E-15   0.137E-24 0.363E-24 -.165E-24   0.857E-15 0.864E-17 -.207E-14
   -.171E-14 -.230E-14 -.294E-13   0.175E-15 0.769E-15 0.366E-15   0.118E-24 0.279E-25 -.629E-24   -.881E-15 -.531E-16 -.210E-14
   -.865E-15 -.811E-14 0.202E-13   0.240E-15 -.127E-15 -.105E-14   -.509E-24 -.536E-24 -.117E-23   -.924E-15 0.205E-16 0.200E-14
 -----------------------------------------------------------------------------------------------
   0.622E-14 -.128E-13 -.397E-14   -.894E-16 -.219E-15 0.136E-15   0.491E-25 -.285E-24 -.559E-24   -.128E-15 -.271E-16 -.187E-15
 
 
 POSITION                                       TOTAL-FORCE (eV/Angst)
 -----------------------------------------------------------------------------------
      0.00000      0.00000      0.00000        -0.000000      0.000000     -0.000000
      0.00000      2.03940      2.03940        -0.000000      0.000000      0.000000
      2.03940      0.00000      2.03940         0.000000     -0.000000      0.000000
      2.03940      2.03940      0.00000         0.000000     -0.000000     -0.000000
 -----------------------------------------------------------------------------------
    total drift:                                0.000000     -0.000000     -0.000000


--------------------------------------------------------------------------------------------------------



  FREE ENERGIE OF THE ION-ELECTRON SYSTEM (eV)
  ---------------------------------------------------
  free  energy   TOTEN  =       -14.97380656 eV

  energy  without entropy=      -14.97193697  energy(sigma->0) =      -14.97287176
 


--------------------------------------------------------------------------------------------------------


    POTLOK:  cpu time      0.0023: real time      0.0023


--------------------------------------------------------------------------------------------------------




--------------------------------------------------------------------------------------------------------


  
 reached required accuracy - stopping structural energy minimisation
 writing wavefunctions
     LOOP+:  cpu time      7.8320: real time      8.0243
    4ORBIT:  cpu time      0.0000: real time      0.0000

 total amount of memory used by VASP MPI-rank0    47641. kBytes
=======================================================================

   base      :      30000. kBytes
   nonl-proj :      13513. kBytes
   fftplans  :        147. kBytes
   grid      :        485. kBytes
   one-center:         12. kBytes
   wavefun   :       3484. kBytes
 
  
  
 General timing and accounting informations for this job:
 ========================================================
  
                  Total CPU time used (sec):        9.365
                            User time (sec):        8.536
                          System time (sec):        0.828
                         Elapsed time (sec):       10.294
  
                   Maximum memory used (kb):      194580.
                   Average memory used (kb):          N/A
  
                          Minor page faults:        49245
                          Major page faults:         1540
                 Voluntary context switches:         2410
