       N       E                     dE             d eps       ncg     rms          rms(c)
DAV:   1    -0.785448697236E+01   -0.78545E+01   -0.39392E+03  7944   0.307E+02
DAV:   2    -0.150476605090E+02   -0.71932E+01   -0.71294E+01 11664   0.254E+01
DAV:   3    -0.150778284563E+02   -0.30168E-01   -0.30160E-01 10416   0.205E+00
DAV:   4    -0.150778772690E+02   -0.48813E-04   -0.48813E-04 13704   0.746E-02
DAV:   5    -0.150778772777E+02   -0.87099E-08   -0.82401E-08 10392   0.714E-04    0.262E+00
DAV:   6    -0.150257723231E+02    0.52105E-01   -0.65421E-03 11712   0.251E-01    0.152E+00
DAV:   7    -0.149876813148E+02    0.38091E-01   -0.18764E-02 10272   0.399E-01    0.267E-01
DAV:   8    -0.149875707665E+02    0.11055E-03   -0.79022E-05 14208   0.343E-02    0.336E-02
DAV:   9    -0.149875621302E+02    0.86363E-05   -0.38294E-06  7272   0.578E-03
   1 F= -.14987562E+02 E0= -.14986665E+02  d E =-.179431E-02
