       N       E                     dE             d eps       ncg     rms          rms(c)
DAV:   1    -0.901620868602E+01   -0.90162E+01   -0.50696E+03  2688   0.491E+02
DAV:   2    -0.219985115390E+02   -0.12982E+02   -0.12899E+02  3144   0.443E+01
DAV:   3    -0.220516749622E+02   -0.53163E-01   -0.53151E-01  3384   0.361E+00
DAV:   4    -0.220518018737E+02   -0.12691E-03   -0.12691E-03  3840   0.116E-01
DAV:   5    -0.220518020399E+02   -0.16614E-06   -0.16617E-06  3696   0.231E-03    0.192E+01
DAV:   6    -0.190884844021E+02    0.29633E+01   -0.13018E+01  2736   0.282E+01    0.279E+00
DAV:   7    -0.189979753506E+02    0.90509E-01   -0.11840E-01  3648   0.219E+00    0.174E+00
DAV:   8    -0.189643791568E+02    0.33596E-01   -0.95338E-03  2880   0.547E-01    0.242E-01
DAV:   9    -0.189638622694E+02    0.51689E-03   -0.87586E-04  3720   0.107E-01    0.661E-02
DAV:  10    -0.189638005959E+02    0.61673E-04   -0.21136E-05  1728   0.263E-02
   1 F= -.18963801E+02 E0= -.18962658E+02  d E =-.228535E-02
