<?xml version="1.0" encoding="ISO-8859-1"?>
<modeling>
 <generator>
  <i name="program" type="string">vasp </i>
  <i name="version" type="string">6.3.0  </i>
  <i name="subversion" type="string">20Jan22 (build Feb 10 2022 15:15:41) complex                          parallel </i>
  <i name="platform" type="string">LinuxIFC </i>
  <i name="date" type="string">2023 09 09 </i>
  <i name="time" type="string">18:09:03 </i>
 </generator>
 <incar>
  <i type="int" name="ICHARG">    11</i>
  <i name="ENCUT">    400.00000000</i>
  <i type="int" name="ISMEAR">     0</i>
  <i name="SIGMA">      0.05000000</i>
  <i type="int" name="LORBIT">    11</i>
 </incar>
 <primitive_cell>
  <structure name="primitive_cell" >
   <crystal>
    <varray name="basis" >
     <v>       2.01920658      -2.01920658       0.00000000 </v>
     <v>       2.01920658       0.00000000       2.01920658 </v>
     <v>       0.00000000      -2.01920658       2.01920658 </v>
    </varray>
    <i name="volume">     16.46539891 </i>
    <varray name="rec_basis" >
     <v>       0.24762201      -0.24762201      -0.24762201 </v>
     <v>       0.24762201       0.24762201       0.24762201 </v>
     <v>      -0.24762201      -0.24762201       0.24762201 </v>
    </varray>
   </crystal>
   <varray name="positions" >
    <v>       0.00000000       0.00000000       0.00000000 </v>
   </varray>
  </structure>
  <varray name="primitive_index" >
   <v type="int" >        1 </v>
  </varray>
 </primitive_cell>
 <kpoints>
  <generation param="Gamma">
   <v type="int" name="divisions">      16       16       16 </v>
   <v name="usershift">      0.00000000       0.00000000       0.00000000 </v>
   <v name="genvec1">      0.06250000       0.00000000       0.00000000 </v>
   <v name="genvec2">      0.00000000       0.06250000       0.00000000 </v>
   <v name="genvec3">      0.00000000       0.00000000       0.06250000 </v>
   <v name="shift">      0.00000000       0.00000000       0.00000000 </v>
  </generation>
  <varray name="kpointlist" >
   <v>       0.00000000       0.00000000       0.00000000 </v>
   <v>       0.06250000       0.00000000       0.00000000 </v>
   <v>       0.12500000       0.00000000       0.00000000 </v>
   <v>       0.18750000       0.00000000       0.00000000 </v>
   <v>       0.25000000       0.00000000       0.00000000 </v>
   <v>       0.31250000       0.00000000       0.00000000 </v>
   <v>       0.37500000       0.00000000       0.00000000 </v>
   <v>       0.43750000       0.00000000       0.00000000 </v>
   <v>       0.50000000       0.00000000       0.00000000 </v>
   <v>       0.06250000       0.06250000       0.00000000 </v>
   <v>       0.12500000       0.06250000       0.00000000 </v>
   <v>       0.18750000       0.06250000       0.00000000 </v>
   <v>       0.25000000       0.06250000       0.00000000 </v>
   <v>       0.31250000       0.06250000       0.00000000 </v>
   <v>       0.37500000       0.06250000       0.00000000 </v>
   <v>       0.43750000       0.06250000       0.00000000 </v>
   <v>       0.50000000       0.06250000       0.00000000 </v>
   <v>       0.12500000       0.12500000       0.00000000 </v>
   <v>       0.18750000       0.12500000       0.00000000 </v>
   <v>       0.25000000       0.12500000       0.00000000 </v>
   <v>       0.31250000       0.12500000       0.00000000 </v>
   <v>       0.37500000       0.12500000       0.00000000 </v>
   <v>       0.43750000       0.12500000       0.00000000 </v>
   <v>       0.50000000       0.12500000       0.00000000 </v>
   <v>       0.18750000       0.18750000       0.00000000 </v>
   <v>       0.25000000       0.18750000       0.00000000 </v>
   <v>       0.31250000       0.18750000       0.00000000 </v>
   <v>       0.37500000       0.18750000       0.00000000 </v>
   <v>       0.43750000       0.18750000       0.00000000 </v>
   <v>       0.50000000       0.18750000       0.00000000 </v>
   <v>       0.25000000       0.25000000       0.00000000 </v>
   <v>       0.31250000       0.25000000       0.00000000 </v>
   <v>       0.37500000       0.25000000       0.00000000 </v>
   <v>       0.43750000       0.25000000       0.00000000 </v>
   <v>       0.50000000       0.25000000       0.00000000 </v>
   <v>       0.31250000       0.31250000       0.00000000 </v>
   <v>       0.37500000       0.31250000       0.00000000 </v>
   <v>       0.43750000       0.31250000       0.00000000 </v>
   <v>       0.50000000       0.31250000       0.00000000 </v>
   <v>       0.37500000       0.37500000       0.00000000 </v>
   <v>       0.43750000       0.37500000       0.00000000 </v>
   <v>       0.50000000       0.37500000       0.00000000 </v>
   <v>       0.43750000       0.43750000       0.00000000 </v>
   <v>       0.50000000       0.43750000       0.00000000 </v>
   <v>       0.50000000       0.50000000       0.00000000 </v>
   <v>       0.06250000       0.06250000       0.06250000 </v>
   <v>       0.12500000       0.06250000       0.06250000 </v>
   <v>       0.18750000       0.06250000       0.06250000 </v>
   <v>       0.25000000       0.06250000       0.06250000 </v>
   <v>       0.31250000       0.06250000       0.06250000 </v>
   <v>       0.37500000       0.06250000       0.06250000 </v>
   <v>       0.43750000       0.06250000       0.06250000 </v>
   <v>       0.50000000       0.06250000       0.06250000 </v>
   <v>       0.12500000       0.12500000       0.06250000 </v>
   <v>       0.18750000       0.12500000       0.06250000 </v>
   <v>       0.25000000       0.12500000       0.06250000 </v>
   <v>       0.31250000       0.12500000       0.06250000 </v>
   <v>       0.37500000       0.12500000       0.06250000 </v>
   <v>       0.43750000       0.12500000       0.06250000 </v>
   <v>       0.50000000       0.12500000       0.06250000 </v>
   <v>       0.18750000       0.18750000       0.06250000 </v>
   <v>       0.25000000       0.18750000       0.06250000 </v>
   <v>       0.31250000       0.18750000       0.06250000 </v>
   <v>       0.37500000       0.18750000       0.06250000 </v>
   <v>       0.43750000       0.18750000       0.06250000 </v>
   <v>       0.50000000       0.18750000       0.06250000 </v>
   <v>       0.25000000       0.25000000       0.06250000 </v>
   <v>       0.31250000       0.25000000       0.06250000 </v>
   <v>       0.37500000       0.25000000       0.06250000 </v>
   <v>       0.43750000       0.25000000       0.06250000 </v>
   <v>       0.50000000       0.25000000       0.06250000 </v>
   <v>       0.31250000       0.31250000       0.06250000 </v>
   <v>       0.37500000       0.31250000       0.06250000 </v>
   <v>       0.43750000       0.31250000       0.06250000 </v>
   <v>       0.50000000       0.31250000       0.06250000 </v>
   <v>       0.37500000       0.37500000       0.06250000 </v>
   <v>       0.43750000       0.37500000       0.06250000 </v>
   <v>       0.50000000       0.37500000       0.06250000 </v>
   <v>       0.43750000       0.43750000       0.06250000 </v>
   <v>       0.50000000       0.43750000       0.06250000 </v>
   <v>       0.50000000       0.50000000       0.06250000 </v>
   <v>       0.12500000       0.12500000       0.12500000 </v>
   <v>       0.18750000       0.12500000       0.12500000 </v>
   <v>       0.25000000       0.12500000       0.12500000 </v>
   <v>       0.31250000       0.12500000       0.12500000 </v>
   <v>       0.37500000       0.12500000       0.12500000 </v>
   <v>       0.43750000       0.12500000       0.12500000 </v>
   <v>       0.50000000       0.12500000       0.12500000 </v>
   <v>       0.18750000       0.18750000       0.12500000 </v>
   <v>       0.25000000       0.18750000       0.12500000 </v>
   <v>       0.31250000       0.18750000       0.12500000 </v>
   <v>       0.37500000       0.18750000       0.12500000 </v>
   <v>       0.43750000       0.18750000       0.12500000 </v>
   <v>       0.50000000       0.18750000       0.12500000 </v>
   <v>       0.25000000       0.25000000       0.12500000 </v>
   <v>       0.31250000       0.25000000       0.12500000 </v>
   <v>       0.37500000       0.25000000       0.12500000 </v>
   <v>       0.43750000       0.25000000       0.12500000 </v>
   <v>       0.50000000       0.25000000       0.12500000 </v>
   <v>       0.31250000       0.31250000       0.12500000 </v>
   <v>       0.37500000       0.31250000       0.12500000 </v>
   <v>       0.43750000       0.31250000       0.12500000 </v>
   <v>       0.50000000       0.31250000       0.12500000 </v>
   <v>       0.37500000       0.37500000       0.12500000 </v>
   <v>       0.43750000       0.37500000       0.12500000 </v>
   <v>       0.50000000       0.37500000       0.12500000 </v>
   <v>       0.43750000       0.43750000       0.12500000 </v>
   <v>       0.50000000       0.43750000       0.12500000 </v>
   <v>       0.50000000       0.50000000       0.12500000 </v>
   <v>       0.18750000       0.18750000       0.18750000 </v>
   <v>       0.25000000       0.18750000       0.18750000 </v>
   <v>       0.31250000       0.18750000       0.18750000 </v>
   <v>       0.37500000       0.18750000       0.18750000 </v>
   <v>       0.43750000       0.18750000       0.18750000 </v>
   <v>       0.50000000       0.18750000       0.18750000 </v>
   <v>       0.25000000       0.25000000       0.18750000 </v>
   <v>       0.31250000       0.25000000       0.18750000 </v>
   <v>       0.37500000       0.25000000       0.18750000 </v>
   <v>       0.43750000       0.25000000       0.18750000 </v>
   <v>       0.50000000       0.25000000       0.18750000 </v>
   <v>       0.31250000       0.31250000       0.18750000 </v>
   <v>       0.37500000       0.31250000       0.18750000 </v>
   <v>       0.43750000       0.31250000       0.18750000 </v>
   <v>       0.50000000       0.31250000       0.18750000 </v>
   <v>       0.37500000       0.37500000       0.18750000 </v>
   <v>       0.43750000       0.37500000       0.18750000 </v>
   <v>       0.50000000       0.37500000       0.18750000 </v>
   <v>       0.43750000       0.43750000       0.18750000 </v>
   <v>       0.50000000       0.43750000       0.18750000 </v>
   <v>       0.50000000       0.50000000       0.18750000 </v>
   <v>       0.25000000       0.25000000       0.25000000 </v>
   <v>       0.31250000       0.25000000       0.25000000 </v>
   <v>       0.37500000       0.25000000       0.25000000 </v>
   <v>       0.43750000       0.25000000       0.25000000 </v>
   <v>       0.50000000       0.25000000       0.25000000 </v>
   <v>       0.31250000       0.31250000       0.25000000 </v>
   <v>       0.37500000       0.31250000       0.25000000 </v>
   <v>       0.43750000       0.31250000       0.25000000 </v>
   <v>       0.50000000       0.31250000       0.25000000 </v>
   <v>       0.37500000       0.37500000       0.25000000 </v>
   <v>       0.43750000       0.37500000       0.25000000 </v>
   <v>       0.50000000       0.37500000       0.25000000 </v>
   <v>       0.43750000       0.43750000       0.25000000 </v>
   <v>       0.50000000       0.43750000       0.25000000 </v>
   <v>       0.50000000       0.50000000       0.25000000 </v>
   <v>       0.31250000       0.31250000       0.31250000 </v>
   <v>       0.37500000       0.31250000       0.31250000 </v>
   <v>       0.43750000       0.31250000       0.31250000 </v>
   <v>       0.50000000       0.31250000       0.31250000 </v>
   <v>       0.37500000       0.37500000       0.31250000 </v>
   <v>       0.43750000       0.37500000       0.31250000 </v>
   <v>       0.50000000       0.37500000       0.31250000 </v>
   <v>       0.43750000       0.43750000       0.31250000 </v>
   <v>       0.50000000       0.43750000       0.31250000 </v>
   <v>       0.50000000       0.50000000       0.31250000 </v>
   <v>       0.37500000       0.37500000       0.37500000 </v>
   <v>       0.43750000       0.37500000       0.37500000 </v>
   <v>       0.50000000       0.37500000       0.37500000 </v>
   <v>       0.43750000       0.43750000       0.37500000 </v>
   <v>       0.50000000       0.43750000       0.37500000 </v>
   <v>       0.50000000       0.50000000       0.37500000 </v>
   <v>       0.43750000       0.43750000       0.43750000 </v>
   <v>       0.50000000       0.43750000       0.43750000 </v>
   <v>       0.50000000       0.50000000       0.43750000 </v>
   <v>       0.50000000       0.50000000       0.50000000 </v>
  </varray>
  <varray name="weights" >
   <v>       0.00024414 </v>
   <v>       0.00146484 </v>
   <v>       0.00146484 </v>
   <v>       0.00146484 </v>
   <v>       0.00146484 </v>
   <v>       0.00146484 </v>
   <v>       0.00146484 </v>
   <v>       0.00146484 </v>
   <v>       0.00073242 </v>
   <v>       0.00292969 </v>
   <v>       0.00585938 </v>
   <v>       0.00585938 </v>
   <v>       0.00585938 </v>
   <v>       0.00585938 </v>
   <v>       0.00585938 </v>
   <v>       0.00585938 </v>
   <v>       0.00292969 </v>
   <v>       0.00292969 </v>
   <v>       0.00585938 </v>
   <v>       0.00585938 </v>
   <v>       0.00585938 </v>
   <v>       0.00585938 </v>
   <v>       0.00585938 </v>
   <v>       0.00292969 </v>
   <v>       0.00292969 </v>
   <v>       0.00585938 </v>
   <v>       0.00585938 </v>
   <v>       0.00585938 </v>
   <v>       0.00585938 </v>
   <v>       0.00292969 </v>
   <v>       0.00292969 </v>
   <v>       0.00585938 </v>
   <v>       0.00585938 </v>
   <v>       0.00585938 </v>
   <v>       0.00292969 </v>
   <v>       0.00292969 </v>
   <v>       0.00585938 </v>
   <v>       0.00585938 </v>
   <v>       0.00292969 </v>
   <v>       0.00292969 </v>
   <v>       0.00585938 </v>
   <v>       0.00292969 </v>
   <v>       0.00292969 </v>
   <v>       0.00292969 </v>
   <v>       0.00073242 </v>
   <v>       0.00195312 </v>
   <v>       0.00585938 </v>
   <v>       0.00585938 </v>
   <v>       0.00585938 </v>
   <v>       0.00585938 </v>
   <v>       0.00585938 </v>
   <v>       0.00585938 </v>
   <v>       0.00292969 </v>
   <v>       0.00585938 </v>
   <v>       0.01171875 </v>
   <v>       0.01171875 </v>
   <v>       0.01171875 </v>
   <v>       0.01171875 </v>
   <v>       0.01171875 </v>
   <v>       0.00585938 </v>
   <v>       0.00585938 </v>
   <v>       0.01171875 </v>
   <v>       0.01171875 </v>
   <v>       0.01171875 </v>
   <v>       0.01171875 </v>
   <v>       0.00585938 </v>
   <v>       0.00585938 </v>
   <v>       0.01171875 </v>
   <v>       0.01171875 </v>
   <v>       0.01171875 </v>
   <v>       0.00585938 </v>
   <v>       0.00585938 </v>
   <v>       0.01171875 </v>
   <v>       0.01171875 </v>
   <v>       0.00585938 </v>
   <v>       0.00585938 </v>
   <v>       0.01171875 </v>
   <v>       0.00585938 </v>
   <v>       0.00585938 </v>
   <v>       0.00585938 </v>
   <v>       0.00146484 </v>
   <v>       0.00195312 </v>
   <v>       0.00585938 </v>
   <v>       0.00585938 </v>
   <v>       0.00585938 </v>
   <v>       0.00585938 </v>
   <v>       0.00585938 </v>
   <v>       0.00292969 </v>
   <v>       0.00585938 </v>
   <v>       0.01171875 </v>
   <v>       0.01171875 </v>
   <v>       0.01171875 </v>
   <v>       0.01171875 </v>
   <v>       0.00585938 </v>
   <v>       0.00585938 </v>
   <v>       0.01171875 </v>
   <v>       0.01171875 </v>
   <v>       0.01171875 </v>
   <v>       0.00585938 </v>
   <v>       0.00585938 </v>
   <v>       0.01171875 </v>
   <v>       0.01171875 </v>
   <v>       0.00585938 </v>
   <v>       0.00585938 </v>
   <v>       0.01171875 </v>
   <v>       0.00585938 </v>
   <v>       0.00585938 </v>
   <v>       0.00585938 </v>
   <v>       0.00146484 </v>
   <v>       0.00195312 </v>
   <v>       0.00585938 </v>
   <v>       0.00585938 </v>
   <v>       0.00585938 </v>
   <v>       0.00585938 </v>
   <v>       0.00292969 </v>
   <v>       0.00585938 </v>
   <v>       0.01171875 </v>
   <v>       0.01171875 </v>
   <v>       0.01171875 </v>
   <v>       0.00585938 </v>
   <v>       0.00585938 </v>
   <v>       0.01171875 </v>
   <v>       0.01171875 </v>
   <v>       0.00585938 </v>
   <v>       0.00585938 </v>
   <v>       0.01171875 </v>
   <v>       0.00585938 </v>
   <v>       0.00585938 </v>
   <v>       0.00585938 </v>
   <v>       0.00146484 </v>
   <v>       0.00195312 </v>
   <v>       0.00585938 </v>
   <v>       0.00585938 </v>
   <v>       0.00585938 </v>
   <v>       0.00292969 </v>
   <v>       0.00585938 </v>
   <v>       0.01171875 </v>
   <v>       0.01171875 </v>
   <v>       0.00585938 </v>
   <v>       0.00585938 </v>
   <v>       0.01171875 </v>
   <v>       0.00585938 </v>
   <v>       0.00585938 </v>
   <v>       0.00585938 </v>
   <v>       0.00146484 </v>
   <v>       0.00195312 </v>
   <v>       0.00585938 </v>
   <v>       0.00585938 </v>
   <v>       0.00292969 </v>
   <v>       0.00585938 </v>
   <v>       0.01171875 </v>
   <v>       0.00585938 </v>
   <v>       0.00585938 </v>
   <v>       0.00585938 </v>
   <v>       0.00146484 </v>
   <v>       0.00195312 </v>
   <v>       0.00585938 </v>
   <v>       0.00292969 </v>
   <v>       0.00585938 </v>
   <v>       0.00585938 </v>
   <v>       0.00146484 </v>
   <v>       0.00195312 </v>
   <v>       0.00292969 </v>
   <v>       0.00146484 </v>
   <v>       0.00024414 </v>
  </varray>
 </kpoints>
 <parameters>
  <separator name="general" >
   <i type="string" name="SYSTEM">unknown system</i>
   <i type="logical" name="LCOMPAT"> F  </i>
  </separator>
  <separator name="electronic" >
   <i type="string" name="PREC">normal</i>
   <i name="ENMAX">    400.00000000</i>
   <i name="ENAUG">    291.05200000</i>
   <i name="EDIFF">      0.00010000</i>
   <i type="int" name="IALGO">    38</i>
   <i type="int" name="IWAVPR">    10</i>
   <i type="int" name="NBANDS">    24</i>
   <i type="int" name="NBANDSLOW">    -1</i>
   <i type="int" name="NBANDSHIGH">    -1</i>
   <i name="NELECT">     12.00000000</i>
   <i type="int" name="TURBO">     0</i>
   <i type="int" name="IRESTART">     0</i>
   <i type="int" name="NREBOOT">     0</i>
   <i type="int" name="NMIN">     0</i>
   <i name="EREF">      0.00000000</i>
   <separator name="electronic smearing" >
    <i type="int" name="ISMEAR">     0</i>
    <i name="SIGMA">      0.05000000</i>
    <i name="KSPACING">      0.50000000</i>
    <i type="logical" name="KGAMMA"> T  </i>
    <i type="logical" name="KBLOWUP"> T  </i>
   </separator>
   <separator name="electronic projectors" >
    <i type="logical" name="LREAL"> F  </i>
    <v name="ROPT">      0.00000000</v>
    <i type="int" name="LMAXPAW">  -100</i>
    <i type="int" name="LMAXMIX">     2</i>
    <i type="logical" name="NLSPLINE"> F  </i>
   </separator>
   <separator name="electronic startup" >
    <i type="int" name="ISTART">     0</i>
    <i type="int" name="ICHARG">    11</i>
    <i type="int" name="INIWAV">     1</i>
   </separator>
   <separator name="electronic spin" >
    <i type="int" name="ISPIN">     1</i>
    <i type="logical" name="LNONCOLLINEAR"> F  </i>
    <v name="MAGMOM">      1.00000000      1.00000000      1.00000000      1.00000000</v>
    <i name="NUPDOWN">     -1.00000000</i>
    <i type="logical" name="LSORBIT"> F  </i>
    <v name="SAXIS">      0.00000000      0.00000000      1.00000000</v>
    <i type="logical" name="LSPIRAL"> F  </i>
    <v name="QSPIRAL">      0.00000000      0.00000000      0.00000000</v>
    <i type="logical" name="LZEROZ"> F  </i>
   </separator>
   <separator name="electronic exchange-correlation" >
    <i type="logical" name="LASPH"> F  </i>
    <i type="logical" name="LMETAGGA"> F  </i>
   </separator>
   <separator name="electronic convergence" >
    <i type="int" name="NELM">    60</i>
    <i type="int" name="NELMDL">    -5</i>
    <i type="int" name="NELMIN">     2</i>
    <i name="ENINI">    400.00000000</i>
    <separator name="electronic convergence detail" >
     <i type="logical" name="LDIAG"> T  </i>
     <i type="logical" name="LSUBROT"> F  </i>
     <i name="WEIMIN">      0.00000000</i>
     <i name="EBREAK">      0.00000104</i>
     <i name="DEPER">      0.30000000</i>
     <i type="int" name="NRMM">     4</i>
     <i name="TIME">      0.40000000</i>
    </separator>
   </separator>
   <separator name="electronic mixer" >
    <i name="AMIX">      0.40000000</i>
    <i name="BMIX">      1.00000000</i>
    <i name="AMIN">      0.10000000</i>
    <i name="AMIX_MAG">      1.60000000</i>
    <i name="BMIX_MAG">      1.00000000</i>
    <separator name="electronic mixer details" >
     <i type="int" name="IMIX">     4</i>
     <i type="logical" name="MIXFIRST"> F  </i>
     <i type="int" name="MAXMIX">   -45</i>
     <i name="WC">    100.00000000</i>
     <i type="int" name="INIMIX">     1</i>
     <i type="int" name="MIXPRE">     1</i>
     <i type="int" name="MREMOVE">     5</i>
    </separator>
   </separator>
   <separator name="electronic dipolcorrection" >
    <i type="logical" name="LDIPOL"> F  </i>
    <i type="logical" name="LMONO"> F  </i>
    <i type="int" name="IDIPOL">     0</i>
    <i name="EPSILON">      1.00000000</i>
    <v name="DIPOL">   -100.00000000   -100.00000000   -100.00000000</v>
    <i name="EFIELD">      0.00000000</i>
   </separator>
  </separator>
  <separator name="grids" >
   <i type="int" name="NGX">    20</i>
   <i type="int" name="NGY">    20</i>
   <i type="int" name="NGZ">    20</i>
   <i type="int" name="NGXF">    40</i>
   <i type="int" name="NGYF">    40</i>
   <i type="int" name="NGZF">    40</i>
   <i type="logical" name="ADDGRID"> F  </i>
  </separator>
  <separator name="ionic" >
   <i type="int" name="NSW">     0</i>
   <i type="int" name="IBRION">    -1</i>
   <i type="int" name="MDALGO">     0</i>
   <i type="int" name="ISIF">     2</i>
   <i name="PSTRESS">      0.00000000</i>
   <i name="EDIFFG">      0.00100000</i>
   <i type="int" name="NFREE">     0</i>
   <i name="POTIM">      0.50000000</i>
   <i name="SMASS">     -3.00000000</i>
   <i name="SCALEE">      1.00000000</i>
  </separator>
  <separator name="ionic md" >
   <i name="TEBEG">      0.00010000</i>
   <i name="TEEND">      0.00010000</i>
   <i type="int" name="NBLOCK">     1</i>
   <i type="int" name="KBLOCK">     1</i>
   <i type="int" name="NPACO">   256</i>
   <i name="APACO">     10.00000000</i>
  </separator>
  <separator name="symmetry" >
   <i type="int" name="ISYM">     2</i>
   <i name="SYMPREC">      0.00001000</i>
  </separator>
  <separator name="dos" >
   <i type="int" name="LORBIT">    11</i>
   <v name="RWIGS">     -1.00000000</v>
   <i type="int" name="NEDOS">   301</i>
   <i name="EMIN">     10.00000000</i>
   <i name="EMAX">    -10.00000000</i>
   <i name="EFERMI">      0.00000000</i>
  </separator>
  <separator name="writing" >
   <i type="int" name="NWRITE">     2</i>
   <i type="logical" name="LWAVE"> T  </i>
   <i type="logical" name="LDOWNSAMPLE"> F  </i>
   <i type="logical" name="LCHARG"> T  </i>
   <i type="logical" name="LPARD"> F  </i>
   <i type="logical" name="LVTOT"> F  </i>
   <i type="logical" name="LVHAR"> F  </i>
   <i type="logical" name="LELF"> F  </i>
   <i type="logical" name="LOPTICS"> F  </i>
   <v name="STM">      0.00000000      0.00000000      0.00000000      0.00000000      0.00000000      0.00000000      0.00000000</v>
  </separator>
  <separator name="performance" >
   <i type="int" name="NPAR">    24</i>
   <i type="int" name="NSIM">     4</i>
   <i type="int" name="NBLK">    -1</i>
   <i type="logical" name="LPLANE"> T  </i>
   <i type="logical" name="LSCALAPACK"> T  </i>
   <i type="logical" name="LSCAAWARE"> F  </i>
   <i type="logical" name="LSCALU"> F  </i>
   <i type="logical" name="LASYNC"> F  </i>
   <i type="logical" name="LORBITALREAL"> F  </i>
  </separator>
  <separator name="miscellaneous" >
   <i type="int" name="IDIOT">     3</i>
   <i type="int" name="PHON_NSTRUCT">    -1</i>
   <i type="logical" name="LMUSIC"> F  </i>
   <v name="POMASS">     26.98100000</v>
   <v name="DARWINR">      0.00000000</v>
   <v name="DARWINV">      1.00000000</v>
   <i type="logical" name="LCORR"> T  </i>
  </separator>
  <i type="logical" name="GGA_COMPAT"> T  </i>
  <i type="logical" name="LBERRY"> F  </i>
  <i type="int" name="ICORELEVEL">     0</i>
  <i type="logical" name="LDAU"> F  </i>
  <i type="int" name="I_CONSTRAINED_M">     0</i>
  <separator name="electronic exchange-correlation" >
   <i type="string" name="GGA">--</i>
   <i type="int" name="VOSKOWN">     0</i>
   <i type="logical" name="LHFCALC"> F  </i>
   <i type="string" name="PRECFOCK"></i>
   <i type="logical" name="LSYMGRAD"> F  </i>
   <i type="logical" name="LHFONE"> F  </i>
   <i type="logical" name="LRHFCALC"> F  </i>
   <i type="logical" name="LTHOMAS"> F  </i>
   <i type="logical" name="LMODELHF"> F  </i>
   <i type="logical" name="LFOCKACE"> F  </i>
   <i name="ENCUT4O">     -1.00000000</i>
   <i type="int" name="EXXOEP">     0</i>
   <i type="int" name="FOURORBIT">     0</i>
   <i name="AEXX">      0.00000000</i>
   <i name="HFALPHA">      0.00000000</i>
   <i name="MCALPHA">      0.00000000</i>
   <i name="ALDAX">      1.00000000</i>
   <i name="AGGAX">      1.00000000</i>
   <i name="ALDAC">      1.00000000</i>
   <i name="AGGAC">      1.00000000</i>
   <i type="int" name="NKREDX">     1</i>
   <i type="int" name="NKREDY">     1</i>
   <i type="int" name="NKREDZ">     1</i>
   <i type="logical" name="SHIFTRED"> F  </i>
   <i type="logical" name="ODDONLY"> F  </i>
   <i type="logical" name="EVENONLY"> F  </i>
   <i type="int" name="LMAXFOCK">     0</i>
   <i type="int" name="NMAXFOCKAE">     0</i>
   <i type="logical" name="LFOCKAEDFT"> F  </i>
   <i name="HFSCREEN">      0.00000000</i>
   <i name="HFSCREENC">      0.00000000</i>
   <i type="int" name="NBANDSGWLOW">     0</i>
  </separator>
  <separator name="vdW DFT" >
   <i type="logical" name="LUSE_VDW"> F  </i>
   <i name="Zab_VDW">     -0.84910000</i>
   <i name="PARAM1">      0.12340000</i>
   <i name="PARAM2">      1.00000000</i>
   <i name="PARAM3">      0.00000000</i>
  </separator>
  <separator name="model GW" >
   <i type="int" name="MODEL_GW">     0</i>
   <i name="MODEL_EPS0">      9.87923935</i>
   <i name="MODEL_ALPHA">      1.00000000</i>
  </separator>
  <separator name="linear response parameters" >
   <i type="logical" name="LEPSILON"> F  </i>
   <i type="logical" name="LRPA"> F  </i>
   <i type="logical" name="LNABLA"> F  </i>
   <i type="logical" name="LVEL"> F  </i>
   <i name="CSHIFT">      0.10000000</i>
   <i name="OMEGAMAX">     -1.00000000</i>
   <i name="DEG_THRESHOLD">      0.00200000</i>
   <i name="RTIME">     -0.10000000</i>
   <i name="WPLASMAI">      0.00000000</i>
   <v name="DFIELD">      0.00000000      0.00000000      0.00000000</v>
   <v name="WPLASMA">      0.00000000      0.00000000      0.00000000      0.00000000      0.00000000      0.00000000      0.00000000      0.00000000      0.00000000</v>
  </separator>
  <separator name="orbital magnetization" >
   <i type="logical" name="NUCIND"> F  </i>
   <v name="MAGPOS">      0.00000000      0.00000000      0.00000000</v>
   <i type="logical" name="LNICSALL"> T  </i>
   <i type="logical" name="ORBITALMAG"> F  </i>
   <i type="logical" name="LMAGBLOCH"> F  </i>
   <i type="logical" name="LCHIMAG"> F  </i>
   <i type="logical" name="LGAUGE"> T  </i>
   <i type="int" name="MAGATOM">     0</i>
   <v name="MAGDIPOL">      0.00000000      0.00000000      0.00000000</v>
   <v name="AVECCONST">      0.00000000      0.00000000      0.00000000</v>
  </separator>
  <separator name="response functions" >
   <i type="logical" name="LFINITE_TEMPERATURE"> F  </i>
   <i type="logical" name="LADDER"> F  </i>
   <i type="logical" name="LRPAFORCE"> F  </i>
   <i type="logical" name="LFXC"> F  </i>
   <i type="logical" name="LHARTREE"> T  </i>
   <i type="int" name="IBSE">     0</i>
   <v type="int" name="KPOINT">    -1     0     0     0</v>
   <i type="logical" name="LTCTC"> F  </i>
   <i type="logical" name="LTCTE"> F  </i>
   <i type="logical" name="LTETE"> F  </i>
   <i type="logical" name="LTRIPLET"> F  </i>
   <i type="logical" name="LFXCEPS"> F  </i>
   <i type="logical" name="LFXHEG"> F  </i>
   <i type="int" name="NATURALO">     2</i>
   <i type="logical" name="LHOLEGF"> F  </i>
   <i type="logical" name="L2ORDER"> F  </i>
   <i type="logical" name="LDMP1"> F  </i>
   <i type="logical" name="LMP2LT"> F  </i>
   <i type="logical" name="LSMP2LT"> F  </i>
   <i type="logical" name="LGWLF"> F  </i>
   <i name="ENCUTGW">     -2.00000000</i>
   <i name="ENCUTGWSOFT">     -2.00000000</i>
   <i name="ENCUTLF">     -1.00000000</i>
   <i type="logical" name="LESF_SPLINES"> F  </i>
   <i type="int" name="LMAXMP2">    -1</i>
   <i name="SCISSOR">      0.00000000</i>
   <i type="int" name="NOMEGA">     0</i>
   <i type="int" name="NOMEGAR">     0</i>
   <i type="int" name="NBANDSGW">    -1</i>
   <i type="int" name="NBANDSO">    -1</i>
   <i type="int" name="NBANDSV">    -1</i>
   <i type="int" name="NELMGW">     1</i>
   <i type="int" name="NELMHF">     1</i>
   <i type="int" name="DIM">     3</i>
   <i type="int" name="IESPILON">     4</i>
   <i type="int" name="ANTIRES">     0</i>
   <i name="OMEGAMAX">    -30.00000000</i>
   <i name="OMEGAMIN">    -30.00000000</i>
   <i name="OMEGATL">   -200.00000000</i>
   <i type="int" name="OMEGAGRID">     0</i>
   <i name="CSHIFT">     -0.10000000</i>
   <i type="logical" name="LSELFENERGY"> F  </i>
   <i type="logical" name="LSPECTRAL"> F  </i>
   <i type="logical" name="LSPECTRALGW"> F  </i>
   <i type="logical" name="LSINGLES"> F  </i>
   <i type="logical" name="LFERMIGW"> F  </i>
   <i type="logical" name="ODDONLYGW"> F  </i>
   <i type="logical" name="EVENONLYGW"> F  </i>
   <i type="int" name="NKREDLFX">     1</i>
   <i type="int" name="NKREDLFY">     1</i>
   <i type="int" name="NKREDLFZ">     1</i>
   <i type="int" name="MAXMEM">  2800</i>
   <i type="int" name="TELESCOPE">     0</i>
   <i type="int" name="NTAUPAR">    -1</i>
   <i type="int" name="NOMEGAPAR">    -1</i>
   <i name="DAMP_NEWTON">      0.80000001</i>
   <i name="LAMBDA">      1.00000000</i>
  </separator>
  <separator name="External order field" >
   <i name="OFIELD_KAPPA">      0.00000000</i>
   <v name="OFIELD_K">      0.00000000      0.00000000      0.00000000</v>
   <i name="OFIELD_Q6_NEAR">      0.00000000</i>
   <i name="OFIELD_Q6_FAR">      0.00000000</i>
   <i name="OFIELD_A">      0.00000000</i>
  </separator>
  <separator name="optional k-points parameters" >
   <i type="int" name="KPOINTS_OPT_MODE">     1</i>
   <i type="logical" name="LKPOINTS_OPT"> F  </i>
  </separator>
 </parameters>
 <atominfo>
  <atoms>       4 </atoms>
  <types>       1 </types>
  <array name="atoms" >
   <dimension dim="1">ion</dimension>
   <field type="string">element</field>
   <field type="int">atomtype</field>
   <set>
    <rc><c>Al</c><c>   1</c></rc>
    <rc><c>Al</c><c>   1</c></rc>
    <rc><c>Al</c><c>   1</c></rc>
    <rc><c>Al</c><c>   1</c></rc>
   </set>
  </array>
  <array name="atomtypes" >
   <dimension dim="1">type</dimension>
   <field type="int">atomspertype</field>
   <field type="string">element</field>
   <field>mass</field>
   <field>valence</field>
   <field type="string">pseudopotential</field>
   <set>
    <rc><c>   4</c><c>Al</c><c>     26.98100000</c><c>      3.00000000</c><c>  PAW_PBE Al 04Jan2001                  </c></rc>
   </set>
  </array>
 </atominfo>
 <structure name="initialpos" >
  <crystal>
   <varray name="basis" >
    <v>       4.03841317       0.00000000       0.00000000 </v>
    <v>       0.00000000       4.03841317       0.00000000 </v>
    <v>       0.00000000       0.00000000       4.03841317 </v>
   </varray>
   <i name="volume">     65.86159565 </i>
   <varray name="rec_basis" >
    <v>       0.24762201       0.00000000       0.00000000 </v>
    <v>       0.00000000       0.24762201       0.00000000 </v>
    <v>       0.00000000       0.00000000       0.24762201 </v>
   </varray>
  </crystal>
  <varray name="positions" >
   <v>       0.00000000       0.00000000       0.00000000 </v>
   <v>       0.00000000       0.50000000       0.50000000 </v>
   <v>       0.50000000       0.00000000       0.50000000 </v>
   <v>       0.50000000       0.50000000       0.00000000 </v>
  </varray>
 </structure>
 <calculation>
  <scstep>
   <time name="dav">    0.46    0.49</time>
   <time name="total">    0.46    0.51</time>
   <energy>
    <i name="alphaZ">     -0.81596806 </i>
    <i name="ewald">   -294.26872583 </i>
    <i name="hartreedc">     -0.42144321 </i>
    <i name="XCdc">   -104.50468557 </i>
    <i name="pawpsdc">    566.40480791 </i>
    <i name="pawaedc">   -438.63768660 </i>
    <i name="eentropy">     -0.00113610 </i>
    <i name="bandstr">     50.38254863 </i>
    <i name="atom">    214.15261729 </i>
    <i name="e_fr_energy">     -7.70967154 </i>
    <i name="e_wo_entrp">     -7.70853543 </i>
    <i name="e_0_energy">     -7.70910349 </i>
   </energy>
  </scstep>
  <scstep>
   <time name="dav">    0.77    0.78</time>
   <time name="total">    0.77    0.78</time>
   <energy>
    <i name="e_fr_energy">    -14.95670790 </i>
    <i name="e_wo_entrp">    -14.95496357 </i>
    <i name="e_0_energy">    -14.95583574 </i>
   </energy>
  </scstep>
  <scstep>
   <time name="dav">    0.69    0.69</time>
   <time name="total">    0.69    0.69</time>
   <energy>
    <i name="e_fr_energy">    -14.98750912 </i>
    <i name="e_wo_entrp">    -14.98572052 </i>
    <i name="e_0_energy">    -14.98661482 </i>
   </energy>
  </scstep>
  <scstep>
   <time name="dav">    1.03    1.04</time>
   <time name="total">    1.03    1.04</time>
   <energy>
    <i name="e_fr_energy">    -14.98756287 </i>
    <i name="e_wo_entrp">    -14.98577437 </i>
    <i name="e_0_energy">    -14.98666862 </i>
   </energy>
  </scstep>
  <scstep>
   <time name="dav">    0.70    0.71</time>
   <time name="total">    0.70    0.71</time>
   <energy>
    <i name="e_fr_energy">    -14.98756288 </i>
    <i name="e_wo_entrp">    -14.98577439 </i>
    <i name="e_0_energy">    -14.98666863 </i>
   </energy>
  </scstep>
  <scstep>
   <time name="dav">    1.04    1.04</time>
   <time name="total">    1.04    1.05</time>
   <energy>
    <i name="alphaZ">     -0.81596806 </i>
    <i name="ewald">   -294.26872583 </i>
    <i name="hartreedc">     -0.42144321 </i>
    <i name="XCdc">   -104.50468557 </i>
    <i name="pawpsdc">    566.40480791 </i>
    <i name="pawaedc">   -438.63768660 </i>
    <i name="eentropy">     -0.00178850 </i>
    <i name="bandstr">     43.10530968 </i>
    <i name="atom">    214.15261729 </i>
    <i name="e_fr_energy">    -14.98756288 </i>
    <i name="e_wo_entrp">    -14.98577439 </i>
    <i name="e_0_energy">    -14.98666864 </i>
   </energy>
  </scstep>
  <structure>
   <crystal>
    <varray name="basis" >
     <v>       4.03841317       0.00000000       0.00000000 </v>
     <v>       0.00000000       4.03841317       0.00000000 </v>
     <v>       0.00000000       0.00000000       4.03841317 </v>
    </varray>
    <i name="volume">     65.86159565 </i>
    <varray name="rec_basis" >
     <v>       0.24762201       0.00000000       0.00000000 </v>
     <v>       0.00000000       0.24762201       0.00000000 </v>
     <v>       0.00000000       0.00000000       0.24762201 </v>
    </varray>
   </crystal>
   <varray name="positions" >
    <v>       0.00000000       0.00000000       0.00000000 </v>
    <v>       0.00000000       0.50000000       0.50000000 </v>
    <v>       0.50000000       0.00000000       0.50000000 </v>
    <v>       0.50000000       0.50000000       0.00000000 </v>
   </varray>
  </structure>
  <varray name="forces" >
   <v>       0.00000000      -0.00000000       0.00000000 </v>
   <v>       0.00000000      -0.00000000      -0.00000000 </v>
   <v>       0.00000000      -0.00000000       0.00000000 </v>
   <v>      -0.00000000       0.00000000      -0.00000000 </v>
  </varray>
  <varray name="stress" >
   <v>      -0.30631580       0.00000000       0.00000000 </v>
   <v>       0.00000000      -0.30631580       0.00000000 </v>
   <v>       0.00000000       0.00000000      -0.30631580 </v>
  </varray>
  <energy>
   <i name="e_fr_energy">    -14.98756288 </i>
   <i name="e_wo_entrp">    -14.98577439 </i>
   <i name="e_0_energy">    -14.98666864 </i>
  </energy>
  <time name="totalsc">    5.17    5.30</time>
  <eigenvalues>
   <array>
    <dimension dim="1">band</dimension>
    <dimension dim="2">kpoint</dimension>
    <dimension dim="3">spin</dimension>
    <field>eigene</field>
    <field>occ</field>
    <set>
     <set comment="spin 1">
      <set comment="kpoint 1">
       <r>   -3.1265    1.0000 </r>
       <r>    5.0935    1.0000 </r>
       <r>    5.0935    1.0000 </r>
       <r>    5.0935    1.0000 </r>
       <r>    6.4215    1.0000 </r>
       <r>    6.4215    1.0000 </r>
       <r>    6.4215    1.0000 </r>
       <r>   13.2815    0.0000 </r>
       <r>   13.2815    0.0000 </r>
       <r>   13.2815    0.0000 </r>
       <r>   13.6266    0.0000 </r>
       <r>   13.6266    0.0000 </r>
       <r>   13.6266    0.0000 </r>
       <r>   13.6266    0.0000 </r>
       <r>   13.6266    0.0000 </r>
       <r>   13.6266    0.0000 </r>
       <r>   17.1113    0.0000 </r>
       <r>   17.1113    0.0000 </r>
       <r>   17.1113    0.0000 </r>
       <r>   20.6557    0.0000 </r>
       <r>   20.6557    0.0000 </r>
       <r>   20.6557    0.0000 </r>
       <r>   22.1610    0.0000 </r>
       <r>   22.1610    0.0000 </r>
      </set>
      <set comment="kpoint 2">
       <r>   -3.0911    1.0000 </r>
       <r>    4.5195    1.0000 </r>
       <r>    5.1260    1.0000 </r>
       <r>    5.1260    1.0000 </r>
       <r>    6.4558    1.0000 </r>
       <r>    6.4558    1.0000 </r>
       <r>    7.0569    1.0000 </r>
       <r>   12.4243    0.0000 </r>
       <r>   12.4243    0.0000 </r>
       <r>   13.3165    0.0000 </r>
       <r>   13.3668    0.0000 </r>
       <r>   13.3668    0.0000 </r>
       <r>   13.6567    0.0000 </r>
       <r>   13.6567    0.0000 </r>
       <r>   14.5494    0.0000 </r>
       <r>   14.5494    0.0000 </r>
       <r>   17.1438    0.0000 </r>
       <r>   17.4241    0.0000 </r>
       <r>   17.4241    0.0000 </r>
       <r>   20.2174    0.0000 </r>
       <r>   20.2174    0.0000 </r>
       <r>   20.3781    0.0000 </r>
       <r>   22.0728    0.0000 </r>
       <r>   22.6531    0.0000 </r>
      </set>
      <set comment="kpoint 3">
       <r>   -2.9847    1.0000 </r>
       <r>    3.6193    1.0000 </r>
       <r>    5.2233    1.0000 </r>
       <r>    5.2233    1.0000 </r>
       <r>    6.5583    1.0000 </r>
       <r>    6.5583    1.0000 </r>
       <r>    8.1412    0.0003 </r>
       <r>   11.4815    0.0000 </r>
       <r>   11.4815    0.0000 </r>
       <r>   12.7652    0.0000 </r>
       <r>   12.7652    0.0000 </r>
       <r>   13.4214    0.0000 </r>
       <r>   13.7470    0.0000 </r>
       <r>   13.7470    0.0000 </r>
       <r>   15.6889    0.0000 </r>
       <r>   15.6889    0.0000 </r>
       <r>   17.2410    0.0000 </r>
       <r>   18.1843    0.0000 </r>
       <r>   18.1843    0.0000 </r>
       <r>   19.4589    0.0000 </r>
       <r>   19.4589    0.0000 </r>
       <r>   19.7337    0.0000 </r>
       <r>   21.8241    0.0000 </r>
       <r>   23.5671    0.0000 </r>
      </set>
      <set comment="kpoint 4">
       <r>   -2.8077    1.0000 </r>
       <r>    2.7269    1.0000 </r>
       <r>    5.3856    1.0000 </r>
       <r>    5.3856    1.0000 </r>
       <r>    6.7282    1.0000 </r>
       <r>    6.7282    1.0000 </r>
       <r>    9.3402    0.0000 </r>
       <r>   10.6000    0.0000 </r>
       <r>   10.6000    0.0000 </r>
       <r>   12.0463    0.0000 </r>
       <r>   12.0463    0.0000 </r>
       <r>   13.5961    0.0000 </r>
       <r>   13.8974    0.0000 </r>
       <r>   13.8974    0.0000 </r>
       <r>   16.8975    0.0000 </r>
       <r>   16.8975    0.0000 </r>
       <r>   17.4016    0.0000 </r>
       <r>   18.6859    0.0000 </r>
       <r>   18.6859    0.0000 </r>
       <r>   18.9657    0.0000 </r>
       <r>   19.1662    0.0000 </r>
       <r>   19.1662    0.0000 </r>
       <r>   21.4537    0.0000 </r>
       <r>   24.2881    0.0000 </r>
      </set>
      <set comment="kpoint 5">
       <r>   -2.5603    1.0000 </r>
       <r>    1.8828    1.0000 </r>
       <r>    5.6128    1.0000 </r>
       <r>    5.6128    1.0000 </r>
       <r>    6.9636    1.0000 </r>
       <r>    6.9636    1.0000 </r>
       <r>    9.7834    0.0000 </r>
       <r>    9.7834    0.0000 </r>
       <r>   10.6130    0.0000 </r>
       <r>   11.3131    0.0000 </r>
       <r>   11.3131    0.0000 </r>
       <r>   13.8404    0.0000 </r>
       <r>   14.1081    0.0000 </r>
       <r>   14.1081    0.0000 </r>
       <r>   17.6239    0.0000 </r>
       <r>   17.9503    0.0000 </r>
       <r>   17.9503    0.0000 </r>
       <r>   18.1711    0.0000 </r>
       <r>   18.1711    0.0000 </r>
       <r>   18.1852    0.0000 </r>
       <r>   20.2645    0.0000 </r>
       <r>   20.2645    0.0000 </r>
       <r>   21.0055    0.0000 </r>
       <r>   22.6783    0.0000 </r>
      </set>
      <set comment="kpoint 6">
       <r>   -2.2428    1.0000 </r>
       <r>    1.0974    1.0000 </r>
       <r>    5.9052    1.0000 </r>
       <r>    5.9052    1.0000 </r>
       <r>    7.2605    1.0000 </r>
       <r>    7.2605    1.0000 </r>
       <r>    9.0325    0.0000 </r>
       <r>    9.0325    0.0000 </r>
       <r>   10.6096    0.0000 </r>
       <r>   10.6096    0.0000 </r>
       <r>   11.9489    0.0000 </r>
       <r>   14.1540    0.0000 </r>
       <r>   14.3790    0.0000 </r>
       <r>   14.3790    0.0000 </r>
       <r>   17.2655    0.0000 </r>
       <r>   17.2655    0.0000 </r>
       <r>   17.4345    0.0000 </r>
       <r>   17.9053    0.0000 </r>
       <r>   19.5078    0.0000 </r>
       <r>   19.5078    0.0000 </r>
       <r>   20.5156    0.0000 </r>
       <r>   21.0487    0.0000 </r>
       <r>   21.4305    0.0000 </r>
       <r>   21.4305    0.0000 </r>
      </set>
      <set comment="kpoint 7">
       <r>   -1.8557    1.0000 </r>
       <r>    0.3746    1.0000 </r>
       <r>    6.2627    1.0000 </r>
       <r>    6.2627    1.0000 </r>
       <r>    7.6093    1.0000 </r>
       <r>    7.6093    1.0000 </r>
       <r>    8.3472    0.0000 </r>
       <r>    8.3472    0.0000 </r>
       <r>    9.9628    0.0000 </r>
       <r>    9.9628    0.0000 </r>
       <r>   13.3430    0.0000 </r>
       <r>   14.5369    0.0000 </r>
       <r>   14.7104    0.0000 </r>
       <r>   14.7104    0.0000 </r>
       <r>   16.6364    0.0000 </r>
       <r>   16.6364    0.0000 </r>
       <r>   16.7321    0.0000 </r>
       <r>   18.2421    0.0000 </r>
       <r>   19.4257    0.0000 </r>
       <r>   20.0201    0.0000 </r>
       <r>   20.9046    0.0000 </r>
       <r>   20.9046    0.0000 </r>
       <r>   22.6257    0.0000 </r>
       <r>   22.6257    0.0000 </r>
      </set>
      <set comment="kpoint 8">
       <r>   -1.3996    1.0000 </r>
       <r>   -0.2835    1.0000 </r>
       <r>    6.6856    1.0000 </r>
       <r>    6.6856    1.0000 </r>
       <r>    7.7277    1.0000 </r>
       <r>    7.7277    1.0000 </r>
       <r>    7.9756    0.8975 </r>
       <r>    7.9756    0.8975 </r>
       <r>    9.4151    0.0000 </r>
       <r>    9.4151    0.0000 </r>
       <r>   14.7925    0.0000 </r>
       <r>   14.9874    0.0000 </r>
       <r>   15.1020    0.0000 </r>
       <r>   15.1020    0.0000 </r>
       <r>   16.0655    0.0000 </r>
       <r>   16.0655    0.0000 </r>
       <r>   16.0872    0.0000 </r>
       <r>   17.8393    0.0000 </r>
       <r>   18.6296    0.0000 </r>
       <r>   19.5278    0.0000 </r>
       <r>   22.3594    0.0000 </r>
       <r>   22.3594    0.0000 </r>
       <r>   23.7689    0.0000 </r>
       <r>   23.7689    0.0000 </r>
      </set>
      <set comment="kpoint 9">
       <r>   -0.8752    1.0000 </r>
       <r>   -0.8752    1.0000 </r>
       <r>    7.1738    1.0000 </r>
       <r>    7.1738    1.0000 </r>
       <r>    7.1738    1.0000 </r>
       <r>    7.1738    1.0000 </r>
       <r>    8.1886    0.0000 </r>
       <r>    8.1886    0.0000 </r>
       <r>    9.1412    0.0000 </r>
       <r>    9.1412    0.0000 </r>
       <r>   15.5047    0.0000 </r>
       <r>   15.5047    0.0000 </r>
       <r>   15.5538    0.0000 </r>
       <r>   15.5538    0.0000 </r>
       <r>   15.5538    0.0000 </r>
       <r>   15.5538    0.0000 </r>
       <r>   16.2926    0.0000 </r>
       <r>   16.2926    0.0000 </r>
       <r>   19.0608    0.0000 </r>
       <r>   19.0608    0.0000 </r>
       <r>   23.8680    0.0000 </r>
       <r>   23.8680    0.0000 </r>
       <r>   23.8680    0.0000 </r>
       <r>   23.8692    0.0000 </r>
      </set>
      <set comment="kpoint 10">
       <r>   -3.0556    1.0000 </r>
       <r>    4.5526    1.0000 </r>
       <r>    4.5526    1.0000 </r>
       <r>    5.1584    1.0000 </r>
       <r>    6.4900    1.0000 </r>
       <r>    7.0904    1.0000 </r>
       <r>    7.0904    1.0000 </r>
       <r>   11.8283    0.0000 </r>
       <r>   12.4572    0.0000 </r>
       <r>   12.4572    0.0000 </r>
       <r>   13.3974    0.0000 </r>
       <r>   13.3974    0.0000 </r>
       <r>   13.6873    0.0000 </r>
       <r>   14.5815    0.0000 </r>
       <r>   14.5815    0.0000 </r>
       <r>   14.6037    0.0000 </r>
       <r>   17.4561    0.0000 </r>
       <r>   17.4561    0.0000 </r>
       <r>   17.7639    0.0000 </r>
       <r>   19.5157    0.0000 </r>
       <r>   19.8606    0.0000 </r>
       <r>   20.7246    0.0000 </r>
       <r>   22.2067    0.0000 </r>
       <r>   22.7427    0.0000 </r>
      </set>
      <set comment="kpoint 11">
       <r>   -2.9493    1.0000 </r>
       <r>    3.6530    1.0000 </r>
       <r>    4.6520    1.0000 </r>
       <r>    5.2557    1.0000 </r>
       <r>    6.5921    1.0000 </r>
       <r>    7.1906    1.0000 </r>
       <r>    8.1739    0.0000 </r>
       <r>   10.9500    0.0000 </r>
       <r>   11.5142    0.0000 </r>
       <r>   12.5561    0.0000 </r>
       <r>   12.7968    0.0000 </r>
       <r>   13.2960    0.0000 </r>
       <r>   13.4892    0.0000 </r>
       <r>   14.6778    0.0000 </r>
       <r>   15.4294    0.0000 </r>
       <r>   15.7211    0.0000 </r>
       <r>   17.5518    0.0000 </r>
       <r>   18.2154    0.0000 </r>
       <r>   18.5628    0.0000 </r>
       <r>   18.6788    0.0000 </r>
       <r>   19.1665    0.0000 </r>
       <r>   20.4487    0.0000 </r>
       <r>   22.0598    0.0000 </r>
       <r>   23.3341    0.0000 </r>
      </set>
      <set comment="kpoint 12">
       <r>   -2.7724    1.0000 </r>
       <r>    2.7609    1.0000 </r>
       <r>    4.8175    1.0000 </r>
       <r>    5.4180    1.0000 </r>
       <r>    6.7611    1.0000 </r>
       <r>    7.3567    1.0000 </r>
       <r>    9.3720    0.0000 </r>
       <r>   10.0920    0.0000 </r>
       <r>   10.6327    0.0000 </r>
       <r>   12.0791    0.0000 </r>
       <r>   12.5963    0.0000 </r>
       <r>   12.7207    0.0000 </r>
       <r>   13.6422    0.0000 </r>
       <r>   14.8382    0.0000 </r>
       <r>   16.5683    0.0000 </r>
       <r>   16.9298    0.0000 </r>
       <r>   17.7102    0.0000 </r>
       <r>   17.8582    0.0000 </r>
       <r>   18.4218    0.0000 </r>
       <r>   19.1964    0.0000 </r>
       <r>   19.5719    0.0000 </r>
       <r>   19.8116    0.0000 </r>
       <r>   21.7095    0.0000 </r>
       <r>   24.2858    0.0000 </r>
      </set>
      <set comment="kpoint 13">
       <r>   -2.5250    1.0000 </r>
       <r>    1.9171    1.0000 </r>
       <r>    5.0489    1.0000 </r>
       <r>    5.6453    1.0000 </r>
       <r>    6.9940    1.0000 </r>
       <r>    7.5866    1.0000 </r>
       <r>    9.2879    0.0000 </r>
       <r>    9.8162    0.0000 </r>
       <r>   10.6435    0.0000 </r>
       <r>   11.3477    0.0000 </r>
       <r>   11.8646    0.0000 </r>
       <r>   12.9508    0.0000 </r>
       <r>   13.8566    0.0000 </r>
       <r>   15.0629    0.0000 </r>
       <r>   17.0791    0.0000 </r>
       <r>   17.6986    0.0000 </r>
       <r>   17.8096    0.0000 </r>
       <r>   17.9293    0.0000 </r>
       <r>   18.2034    0.0000 </r>
       <r>   19.1002    0.0000 </r>
       <r>   20.2936    0.0000 </r>
       <r>   20.6895    0.0000 </r>
       <r>   21.2670    0.0000 </r>
       <r>   22.7131    0.0000 </r>
      </set>
      <set comment="kpoint 14">
       <r>   -2.2075    1.0000 </r>
       <r>    1.1318    1.0000 </r>
       <r>    5.3461    1.0000 </r>
       <r>    5.9377    1.0000 </r>
       <r>    7.2813    1.0000 </r>
       <r>    7.8756    1.0000 </r>
       <r>    8.5528    0.0000 </r>
       <r>    9.0651    0.0000 </r>
       <r>   10.6476    0.0000 </r>
       <r>   11.1591    0.0000 </r>
       <r>   11.9768    0.0000 </r>
       <r>   13.2461    0.0000 </r>
       <r>   14.1329    0.0000 </r>
       <r>   15.3522    0.0000 </r>
       <r>   16.3516    0.0000 </r>
       <r>   17.0187    0.0000 </r>
       <r>   18.2070    0.0000 </r>
       <r>   18.4024    0.0000 </r>
       <r>   19.1222    0.0000 </r>
       <r>   19.5393    0.0000 </r>
       <r>   20.7637    0.0000 </r>
       <r>   21.1081    0.0000 </r>
       <r>   21.4578    0.0000 </r>
       <r>   21.8716    0.0000 </r>
      </set>
      <set comment="kpoint 15">
       <r>   -1.8205    1.0000 </r>
       <r>    0.4091    1.0000 </r>
       <r>    5.7083    1.0000 </r>
       <r>    6.2952    1.0000 </r>
       <r>    7.5343    1.0000 </r>
       <r>    7.9734    0.9082 </r>
       <r>    8.2092    0.0000 </r>
       <r>    8.3798    0.0000 </r>
       <r>   10.0113    0.0000 </r>
       <r>   10.5042    0.0000 </r>
       <r>   13.3637    0.0000 </r>
       <r>   13.6062    0.0000 </r>
       <r>   14.4744    0.0000 </r>
       <r>   15.6806    0.0000 </r>
       <r>   15.7053    0.0000 </r>
       <r>   16.3900    0.0000 </r>
       <r>   17.7469    0.0000 </r>
       <r>   18.5396    0.0000 </r>
       <r>   19.4572    0.0000 </r>
       <r>   20.3045    0.0000 </r>
       <r>   20.4959    0.0000 </r>
       <r>   20.9360    0.0000 </r>
       <r>   22.6487    0.0000 </r>
       <r>   23.0830    0.0000 </r>
      </set>
      <set comment="kpoint 16">
       <r>   -1.3646    1.0000 </r>
       <r>   -0.2487    1.0000 </r>
       <r>    6.1348    1.0000 </r>
       <r>    6.7181    1.0000 </r>
       <r>    7.1596    1.0000 </r>
       <r>    7.7603    1.0000 </r>
       <r>    8.1294    0.0010 </r>
       <r>    8.5184    0.0000 </r>
       <r>    9.5173    0.0000 </r>
       <r>    9.9230    0.0000 </r>
       <r>   14.0305    0.0000 </r>
       <r>   14.7153    0.0000 </r>
       <r>   14.9663    0.0000 </r>
       <r>   15.0690    0.0000 </r>
       <r>   15.8159    0.0000 </r>
       <r>   16.1224    0.0000 </r>
       <r>   17.1451    0.0000 </r>
       <r>   17.8787    0.0000 </r>
       <r>   18.9225    0.0000 </r>
       <r>   19.8127    0.0000 </r>
       <r>   21.9183    0.0000 </r>
       <r>   22.3903    0.0000 </r>
       <r>   23.7471    0.0000 </r>
       <r>   24.2356    0.0000 </r>
      </set>
      <set comment="kpoint 17">
       <r>   -0.8403    1.0000 </r>
       <r>   -0.8403    1.0000 </r>
       <r>    6.6227    1.0000 </r>
       <r>    6.6227    1.0000 </r>
       <r>    7.2064    1.0000 </r>
       <r>    7.2064    1.0000 </r>
       <r>    8.4868    0.0000 </r>
       <r>    8.4868    0.0000 </r>
       <r>    9.4882    0.0000 </r>
       <r>    9.4882    0.0000 </r>
       <r>   14.5186    0.0000 </r>
       <r>   14.5186    0.0000 </r>
       <r>   15.2946    0.0000 </r>
       <r>   15.2946    0.0000 </r>
       <r>   16.3412    0.0000 </r>
       <r>   16.3412    0.0000 </r>
       <r>   16.6028    0.0000 </r>
       <r>   16.6028    0.0000 </r>
       <r>   19.3495    0.0000 </r>
       <r>   19.3495    0.0000 </r>
       <r>   23.3468    0.0000 </r>
       <r>   23.3468    0.0000 </r>
       <r>   23.8993    0.0000 </r>
       <r>   23.8993    0.0000 </r>
      </set>
      <set comment="kpoint 18">
       <r>   -2.8431    1.0000 </r>
       <r>    3.7538    1.0000 </r>
       <r>    3.7538    1.0000 </r>
       <r>    5.3531    1.0000 </r>
       <r>    6.6928    1.0000 </r>
       <r>    8.2717    0.0000 </r>
       <r>    8.2717    0.0000 </r>
       <r>   10.0991    0.0000 </r>
       <r>   11.6126    0.0000 </r>
       <r>   11.6126    0.0000 </r>
       <r>   12.8917    0.0000 </r>
       <r>   12.8917    0.0000 </r>
       <r>   13.8692    0.0000 </r>
       <r>   15.2163    0.0000 </r>
       <r>   15.8176    0.0000 </r>
       <r>   15.8176    0.0000 </r>
       <r>   17.7942    0.0000 </r>
       <r>   18.3083    0.0000 </r>
       <r>   18.3083    0.0000 </r>
       <r>   18.5395    0.0000 </r>
       <r>   19.4082    0.0000 </r>
       <r>   20.9320    0.0000 </r>
       <r>   22.3357    0.0000 </r>
       <r>   23.1898    0.0000 </r>
      </set>
      <set comment="kpoint 19">
       <r>   -2.6663    1.0000 </r>
       <r>    2.8626    1.0000 </r>
       <r>    3.9217    1.0000 </r>
       <r>    5.5154    1.0000 </r>
       <r>    6.8580    1.0000 </r>
       <r>    8.4332    0.0000 </r>
       <r>    9.2532    0.0000 </r>
       <r>    9.4668    0.0000 </r>
       <r>   10.7309    0.0000 </r>
       <r>   11.7764    0.0000 </r>
       <r>   12.1779    0.0000 </r>
       <r>   13.0501    0.0000 </r>
       <r>   13.5229    0.0000 </r>
       <r>   15.9643    0.0000 </r>
       <r>   15.9784    0.0000 </r>
       <r>   16.9483    0.0000 </r>
       <r>   17.0261    0.0000 </r>
       <r>   17.8286    0.0000 </r>
       <r>   18.4622    0.0000 </r>
       <r>   19.2864    0.0000 </r>
       <r>   20.4435    0.0000 </r>
       <r>   20.7186    0.0000 </r>
       <r>   22.2078    0.0000 </r>
       <r>   23.7471    0.0000 </r>
      </set>
      <set comment="kpoint 20">
       <r>   -2.4191    1.0000 </r>
       <r>    2.0196    1.0000 </r>
       <r>    4.1564    1.0000 </r>
       <r>    5.7427    1.0000 </r>
       <r>    7.0778    1.0000 </r>
       <r>    8.4648    0.0000 </r>
       <r>    8.6549    0.0000 </r>
       <r>    9.9142    0.0000 </r>
       <r>   10.7332    0.0000 </r>
       <r>   11.4527    0.0000 </r>
       <r>   12.0056    0.0000 </r>
       <r>   12.8532    0.0000 </r>
       <r>   13.2732    0.0000 </r>
       <r>   16.1540    0.0000 </r>
       <r>   16.2037    0.0000 </r>
       <r>   17.1207    0.0000 </r>
       <r>   17.1224    0.0000 </r>
       <r>   18.2993    0.0000 </r>
       <r>   18.6753    0.0000 </r>
       <r>   20.1413    0.0000 </r>
       <r>   20.3802    0.0000 </r>
       <r>   21.5746    0.0000 </r>
       <r>   21.8210    0.0000 </r>
       <r>   22.8401    0.0000 </r>
      </set>
      <set comment="kpoint 21">
       <r>   -2.1019    1.0000 </r>
       <r>    1.2349    1.0000 </r>
       <r>    4.4576    1.0000 </r>
       <r>    6.0352    1.0000 </r>
       <r>    7.2685    1.0000 </r>
       <r>    7.8276    1.0000 </r>
       <r>    8.9258    0.0000 </r>
       <r>    9.1631    0.0000 </r>
       <r>   10.7676    0.0000 </r>
       <r>   12.0548    0.0000 </r>
       <r>   12.1656    0.0000 </r>
       <r>   12.3000    0.0000 </r>
       <r>   13.5659    0.0000 </r>
       <r>   15.4169    0.0000 </r>
       <r>   16.4458    0.0000 </r>
       <r>   16.4927    0.0000 </r>
       <r>   18.4016    0.0000 </r>
       <r>   18.9453    0.0000 </r>
       <r>   19.4938    0.0000 </r>
       <r>   19.6345    0.0000 </r>
       <r>   21.0455    0.0000 </r>
       <r>   21.5394    0.0000 </r>
       <r>   21.5674    0.0000 </r>
       <r>   22.7624    0.0000 </r>
      </set>
      <set comment="kpoint 22">
       <r>   -1.7152    1.0000 </r>
       <r>    0.5128    1.0000 </r>
       <r>    4.8246    1.0000 </r>
       <r>    6.3928    1.0000 </r>
       <r>    6.8983    1.0000 </r>
       <r>    7.8752    1.0000 </r>
       <r>    8.4777    0.0000 </r>
       <r>    9.1924    0.0000 </r>
       <r>   10.1940    0.0000 </r>
       <r>   11.5146    0.0000 </r>
       <r>   12.6595    0.0000 </r>
       <r>   13.3826    0.0000 </r>
       <r>   13.9713    0.0000 </r>
       <r>   14.7398    0.0000 </r>
       <r>   15.8161    0.0000 </r>
       <r>   16.8454    0.0000 </r>
       <r>   18.8619    0.0000 </r>
       <r>   19.2693    0.0000 </r>
       <r>   19.5401    0.0000 </r>
       <r>   19.7541    0.0000 </r>
       <r>   20.9967    0.0000 </r>
       <r>   21.0301    0.0000 </r>
       <r>   22.7158    0.0000 </r>
       <r>   23.9685    0.0000 </r>
      </set>
      <set comment="kpoint 23">
       <r>   -1.2595    1.0000 </r>
       <r>   -0.1446    1.0000 </r>
       <r>    5.2567    1.0000 </r>
       <r>    6.3062    1.0000 </r>
       <r>    6.8157    1.0000 </r>
       <r>    7.8581    1.0000 </r>
       <r>    8.2652    0.0000 </r>
       <r>    9.1517    0.0000 </r>
       <r>   10.0441    0.0000 </r>
       <r>   10.9203    0.0000 </r>
       <r>   13.0836    0.0000 </r>
       <r>   14.1246    0.0000 </r>
       <r>   14.2087    0.0000 </r>
       <r>   14.9929    0.0000 </r>
       <r>   15.2368    0.0000 </r>
       <r>   17.2607    0.0000 </r>
       <r>   17.9783    0.0000 </r>
       <r>   18.2728    0.0000 </r>
       <r>   19.6424    0.0000 </r>
       <r>   20.5124    0.0000 </r>
       <r>   21.1603    0.0000 </r>
       <r>   22.4828    0.0000 </r>
       <r>   23.5994    0.0000 </r>
       <r>   24.6201    0.0000 </r>
      </set>
      <set comment="kpoint 24">
       <r>   -0.7357    1.0000 </r>
       <r>   -0.7357    1.0000 </r>
       <r>    5.7521    1.0000 </r>
       <r>    5.7521    1.0000 </r>
       <r>    7.3041    1.0000 </r>
       <r>    7.3041    1.0000 </r>
       <r>    8.7237    0.0000 </r>
       <r>    8.7237    0.0000 </r>
       <r>   10.4035    0.0000 </r>
       <r>   10.4035    0.0000 </r>
       <r>   13.5721    0.0000 </r>
       <r>   13.5721    0.0000 </r>
       <r>   14.7078    0.0000 </r>
       <r>   14.7078    0.0000 </r>
       <r>   16.4503    0.0000 </r>
       <r>   16.4503    0.0000 </r>
       <r>   17.7373    0.0000 </r>
       <r>   17.7373    0.0000 </r>
       <r>   20.0592    0.0000 </r>
       <r>   20.0592    0.0000 </r>
       <r>   22.5866    0.0000 </r>
       <r>   22.5866    0.0000 </r>
       <r>   23.9897    0.0000 </r>
       <r>   23.9897    0.0000 </r>
      </set>
      <set comment="kpoint 25">
       <r>   -2.4897    1.0000 </r>
       <r>    3.0321    1.0000 </r>
       <r>    3.0321    1.0000 </r>
       <r>    5.6778    1.0000 </r>
       <r>    7.0096    1.0000 </r>
       <r>    8.4214    0.0000 </r>
       <r>    9.6218    0.0000 </r>
       <r>    9.6218    0.0000 </r>
       <r>   10.8945    0.0000 </r>
       <r>   10.8945    0.0000 </r>
       <r>   12.3442    0.0000 </r>
       <r>   12.3442    0.0000 </r>
       <r>   14.1726    0.0000 </r>
       <r>   15.7009    0.0000 </r>
       <r>   16.0881    0.0000 </r>
       <r>   17.1351    0.0000 </r>
       <r>   17.1868    0.0000 </r>
       <r>   17.1868    0.0000 </r>
       <r>   19.4354    0.0000 </r>
       <r>   19.4354    0.0000 </r>
       <r>   21.2762    0.0000 </r>
       <r>   21.4877    0.0000 </r>
       <r>   22.4834    0.0000 </r>
       <r>   23.5632    0.0000 </r>
      </set>
      <set comment="kpoint 26">
       <r>   -2.2428    1.0000 </r>
       <r>    2.1903    1.0000 </r>
       <r>    3.2690    1.0000 </r>
       <r>    5.9052    1.0000 </r>
       <r>    7.1344    1.0000 </r>
       <r>    7.7262    1.0000 </r>
       <r>    9.8272    0.0000 </r>
       <r>   10.0776    0.0000 </r>
       <r>   10.8739    0.0000 </r>
       <r>   11.1234    0.0000 </r>
       <r>   11.6351    0.0000 </r>
       <r>   12.5841    0.0000 </r>
       <r>   13.8920    0.0000 </r>
       <r>   15.2850    0.0000 </r>
       <r>   16.4336    0.0000 </r>
       <r>   16.4637    0.0000 </r>
       <r>   17.4110    0.0000 </r>
       <r>   18.4588    0.0000 </r>
       <r>   19.6418    0.0000 </r>
       <r>   20.5234    0.0000 </r>
       <r>   21.1254    0.0000 </r>
       <r>   22.2238    0.0000 </r>
       <r>   22.6171    0.0000 </r>
       <r>   23.1442    0.0000 </r>
      </set>
      <set comment="kpoint 27">
       <r>   -1.9260    1.0000 </r>
       <r>    1.4067    1.0000 </r>
       <r>    3.5730    1.0000 </r>
       <r>    6.1977    1.0000 </r>
       <r>    6.7196    1.0000 </r>
       <r>    7.6925    1.0000 </r>
       <r>    9.3263    0.0000 </r>
       <r>   10.0349    0.0000 </r>
       <r>   11.0116    0.0000 </r>
       <r>   11.4176    0.0000 </r>
       <r>   12.1376    0.0000 </r>
       <r>   12.9376    0.0000 </r>
       <r>   13.2808    0.0000 </r>
       <r>   14.5422    0.0000 </r>
       <r>   15.7589    0.0000 </r>
       <r>   17.6646    0.0000 </r>
       <r>   17.6987    0.0000 </r>
       <r>   19.7927    0.0000 </r>
       <r>   19.9030    0.0000 </r>
       <r>   20.6071    0.0000 </r>
       <r>   21.1567    0.0000 </r>
       <r>   21.6735    0.0000 </r>
       <r>   22.3644    0.0000 </r>
       <r>   23.7941    0.0000 </r>
      </set>
      <set comment="kpoint 28">
       <r>   -1.5397    1.0000 </r>
       <r>    0.6855    1.0000 </r>
       <r>    3.9436    1.0000 </r>
       <r>    6.0657    1.0000 </r>
       <r>    6.5554    1.0000 </r>
       <r>    8.0227    0.4742 </r>
       <r>    8.6408    0.0000 </r>
       <r>    9.9468    0.0000 </r>
       <r>   10.7898    0.0000 </r>
       <r>   11.7769    0.0000 </r>
       <r>   12.6535    0.0000 </r>
       <r>   13.0346    0.0000 </r>
       <r>   13.7768    0.0000 </r>
       <r>   13.8616    0.0000 </r>
       <r>   15.1261    0.0000 </r>
       <r>   18.0489    0.0000 </r>
       <r>   18.9920    0.0000 </r>
       <r>   19.6660    0.0000 </r>
       <r>   20.0225    0.0000 </r>
       <r>   20.2157    0.0000 </r>
       <r>   21.1861    0.0000 </r>
       <r>   21.8676    0.0000 </r>
       <r>   22.8180    0.0000 </r>
       <r>   24.9703    0.0000 </r>
      </set>
      <set comment="kpoint 29">
       <r>   -1.0847    1.0000 </r>
       <r>    0.0289    1.0000 </r>
       <r>    4.3800    1.0000 </r>
       <r>    5.4448    1.0000 </r>
       <r>    6.9785    1.0000 </r>
       <r>    8.0211    0.4921 </r>
       <r>    8.4444    0.0000 </r>
       <r>    9.4572    0.0000 </r>
       <r>   11.0842    0.0000 </r>
       <r>   12.0655    0.0000 </r>
       <r>   12.2012    0.0000 </r>
       <r>   13.2438    0.0000 </r>
       <r>   13.5219    0.0000 </r>
       <r>   14.5418    0.0000 </r>
       <r>   15.1394    0.0000 </r>
       <r>   18.1267    0.0000 </r>
       <r>   18.4604    0.0000 </r>
       <r>   19.4546    0.0000 </r>
       <r>   20.3889    0.0000 </r>
       <r>   20.5757    0.0000 </r>
       <r>   21.4096    0.0000 </r>
       <r>   22.6362    0.0000 </r>
       <r>   23.1491    0.0000 </r>
       <r>   24.4376    0.0000 </r>
      </set>
      <set comment="kpoint 30">
       <r>   -0.5615    1.0000 </r>
       <r>   -0.5615    1.0000 </r>
       <r>    4.8811    1.0000 </r>
       <r>    4.8811    1.0000 </r>
       <r>    7.4670    1.0000 </r>
       <r>    7.4670    1.0000 </r>
       <r>    8.9293    0.0000 </r>
       <r>    8.9293    0.0000 </r>
       <r>   11.5359    0.0000 </r>
       <r>   11.5359    0.0000 </r>
       <r>   12.6903    0.0000 </r>
       <r>   12.6903    0.0000 </r>
       <r>   14.0086    0.0000 </r>
       <r>   14.0086    0.0000 </r>
       <r>   16.6088    0.0000 </r>
       <r>   16.6088    0.0000 </r>
       <r>   18.9305    0.0000 </r>
       <r>   18.9305    0.0000 </r>
       <r>   20.9764    0.0000 </r>
       <r>   20.9764    0.0000 </r>
       <r>   21.8241    0.0000 </r>
       <r>   21.8241    0.0000 </r>
       <r>   24.1389    0.0000 </r>
       <r>   24.1389    0.0000 </r>
      </set>
      <set comment="kpoint 31">
       <r>   -1.9963    1.0000 </r>
       <r>    2.4290    1.0000 </r>
       <r>    2.4290    1.0000 </r>
       <r>    6.1326    1.0000 </r>
       <r>    6.6583    1.0000 </r>
       <r>    7.6291    1.0000 </r>
       <r>   10.3064    0.0000 </r>
       <r>   10.3064    0.0000 </r>
       <r>   11.0194    0.0000 </r>
       <r>   11.0194    0.0000 </r>
       <r>   11.9357    0.0000 </r>
       <r>   11.9357    0.0000 </r>
       <r>   14.4763    0.0000 </r>
       <r>   14.5978    0.0000 </r>
       <r>   15.7326    0.0000 </r>
       <r>   16.2401    0.0000 </r>
       <r>   18.6817    0.0000 </r>
       <r>   18.6817    0.0000 </r>
       <r>   20.7215    0.0000 </r>
       <r>   20.7215    0.0000 </r>
       <r>   21.7573    0.0000 </r>
       <r>   22.1027    0.0000 </r>
       <r>   23.4107    0.0000 </r>
       <r>   23.7357    0.0000 </r>
      </set>
      <set comment="kpoint 32">
       <r>   -1.6801    1.0000 </r>
       <r>    1.6468    1.0000 </r>
       <r>    2.7352    1.0000 </r>
       <r>    5.9414    1.0000 </r>
       <r>    6.4253    1.0000 </r>
       <r>    7.8942    0.9998 </r>
       <r>    9.5549    0.0000 </r>
       <r>   10.6004    0.0000 </r>
       <r>   10.8669    0.0000 </r>
       <r>   11.6717    0.0000 </r>
       <r>   11.9029    0.0000 </r>
       <r>   12.6706    0.0000 </r>
       <r>   13.7300    0.0000 </r>
       <r>   14.3893    0.0000 </r>
       <r>   15.0551    0.0000 </r>
       <r>   17.0411    0.0000 </r>
       <r>   18.9670    0.0000 </r>
       <r>   20.0133    0.0000 </r>
       <r>   20.9712    0.0000 </r>
       <r>   21.2015    0.0000 </r>
       <r>   21.6661    0.0000 </r>
       <r>   21.8572    0.0000 </r>
       <r>   23.1173    0.0000 </r>
       <r>   24.0354    0.0000 </r>
      </set>
      <set comment="kpoint 33">
       <r>   -1.2945    1.0000 </r>
       <r>    0.9269    1.0000 </r>
       <r>    3.1086    1.0000 </r>
       <r>    5.2545    1.0000 </r>
       <r>    6.7832    1.0000 </r>
       <r>    8.2546    0.0000 </r>
       <r>    8.8693    0.0000 </r>
       <r>   10.3154    0.0000 </r>
       <r>   10.9596    0.0000 </r>
       <r>   11.9107    0.0000 </r>
       <r>   12.3661    0.0000 </r>
       <r>   13.0468    0.0000 </r>
       <r>   13.8462    0.0000 </r>
       <r>   13.9444    0.0000 </r>
       <r>   14.4177    0.0000 </r>
       <r>   18.2882    0.0000 </r>
       <r>   19.3135    0.0000 </r>
       <r>   19.8161    0.0000 </r>
       <r>   21.2061    0.0000 </r>
       <r>   21.2684    0.0000 </r>
       <r>   21.4034    0.0000 </r>
       <r>   22.7484    0.0000 </r>
       <r>   22.9272    0.0000 </r>
       <r>   24.2954    0.0000 </r>
      </set>
      <set comment="kpoint 34">
       <r>   -0.8402    1.0000 </r>
       <r>    0.2715    1.0000 </r>
       <r>    3.5484    1.0000 </r>
       <r>    4.6233    1.0000 </r>
       <r>    7.2064    1.0000 </r>
       <r>    8.2493    0.0000 </r>
       <r>    8.6853    0.0000 </r>
       <r>    9.7275    0.0000 </r>
       <r>   11.3841    0.0000 </r>
       <r>   12.2985    0.0000 </r>
       <r>   12.4279    0.0000 </r>
       <r>   12.8070    0.0000 </r>
       <r>   13.2846    0.0000 </r>
       <r>   13.8287    0.0000 </r>
       <r>   15.3525    0.0000 </r>
       <r>   18.3189    0.0000 </r>
       <r>   19.6631    0.0000 </r>
       <r>   19.7188    0.0000 </r>
       <r>   20.6824    0.0000 </r>
       <r>   21.6070    0.0000 </r>
       <r>   22.3650    0.0000 </r>
       <r>   22.5238    0.0000 </r>
       <r>   22.8492    0.0000 </r>
       <r>   24.5006    0.0000 </r>
      </set>
      <set comment="kpoint 35">
       <r>   -0.3179    1.0000 </r>
       <r>   -0.3179    1.0000 </r>
       <r>    4.0538    1.0000 </r>
       <r>    4.0538    1.0000 </r>
       <r>    7.6951    1.0000 </r>
       <r>    7.6951    1.0000 </r>
       <r>    9.1788    0.0000 </r>
       <r>    9.1788    0.0000 </r>
       <r>   11.8735    0.0000 </r>
       <r>   11.8735    0.0000 </r>
       <r>   12.7624    0.0000 </r>
       <r>   12.7624    0.0000 </r>
       <r>   13.2917    0.0000 </r>
       <r>   13.2917    0.0000 </r>
       <r>   16.8190    0.0000 </r>
       <r>   16.8190    0.0000 </r>
       <r>   20.1781    0.0000 </r>
       <r>   20.1781    0.0000 </r>
       <r>   21.0987    0.0000 </r>
       <r>   21.0987    0.0000 </r>
       <r>   21.9775    0.0000 </r>
       <r>   21.9775    0.0000 </r>
       <r>   24.3439    0.0000 </r>
       <r>   24.3442    0.0000 </r>
      </set>
      <set comment="kpoint 36">
       <r>   -1.3645    1.0000 </r>
       <r>    1.9550    1.0000 </r>
       <r>    1.9550    1.0000 </r>
       <r>    5.1904    1.0000 </r>
       <r>    6.7181    1.0000 </r>
       <r>    8.1899    0.0000 </r>
       <r>    9.8488    0.0000 </r>
       <r>    9.8488    0.0000 </r>
       <r>   11.2894    0.0000 </r>
       <r>   11.2894    0.0000 </r>
       <r>   12.8667    0.0000 </r>
       <r>   12.8667    0.0000 </r>
       <r>   12.9811    0.0000 </r>
       <r>   14.3733    0.0000 </r>
       <r>   15.1452    0.0000 </r>
       <r>   16.8825    0.0000 </r>
       <r>   20.2950    0.0000 </r>
       <r>   20.2950    0.0000 </r>
       <r>   20.9212    0.0000 </r>
       <r>   22.0843    0.0000 </r>
       <r>   22.0843    0.0000 </r>
       <r>   22.3746    0.0000 </r>
       <r>   22.9370    0.0000 </r>
       <r>   23.6883    0.0000 </r>
      </set>
      <set comment="kpoint 37">
       <r>   -0.9798    1.0000 </r>
       <r>    1.2367    1.0000 </r>
       <r>    2.3307    1.0000 </r>
       <r>    4.4929    1.0000 </r>
       <r>    7.0762    1.0000 </r>
       <r>    8.5573    0.0000 </r>
       <r>    9.1630    0.0000 </r>
       <r>   10.2080    0.0000 </r>
       <r>   10.6472    0.0000 </r>
       <r>   11.6785    0.0000 </r>
       <r>   12.2966    0.0000 </r>
       <r>   13.1931    0.0000 </r>
       <r>   13.7310    0.0000 </r>
       <r>   14.2126    0.0000 </r>
       <r>   15.0119    0.0000 </r>
       <r>   17.7254    0.0000 </r>
       <r>   19.9214    0.0000 </r>
       <r>   20.6357    0.0000 </r>
       <r>   21.6798    0.0000 </r>
       <r>   22.3398    0.0000 </r>
       <r>   22.3440    0.0000 </r>
       <r>   22.6691    0.0000 </r>
       <r>   22.9381    0.0000 </r>
       <r>   23.7943    0.0000 </r>
      </set>
      <set comment="kpoint 38">
       <r>   -0.5265    1.0000 </r>
       <r>    0.5827    1.0000 </r>
       <r>    2.7733    1.0000 </r>
       <r>    3.8558    1.0000 </r>
       <r>    7.4996    1.0000 </r>
       <r>    8.5429    0.0000 </r>
       <r>    8.9909    0.0000 </r>
       <r>   10.0414    0.0000 </r>
       <r>   10.6324    0.0000 </r>
       <r>   11.6769    0.0000 </r>
       <r>   12.1104    0.0000 </r>
       <r>   13.1371    0.0000 </r>
       <r>   13.5918    0.0000 </r>
       <r>   14.5406    0.0000 </r>
       <r>   15.6243    0.0000 </r>
       <r>   18.5373    0.0000 </r>
       <r>   19.0160    0.0000 </r>
       <r>   21.0314    0.0000 </r>
       <r>   21.8870    0.0000 </r>
       <r>   21.9354    0.0000 </r>
       <r>   22.6105    0.0000 </r>
       <r>   22.7747    0.0000 </r>
       <r>   23.1174    0.0000 </r>
       <r>   23.6504    0.0000 </r>
      </set>
      <set comment="kpoint 39">
       <r>   -0.0054    1.0000 </r>
       <r>   -0.0054    1.0000 </r>
       <r>    3.2821    1.0000 </r>
       <r>    3.2821    1.0000 </r>
       <r>    7.9884    0.8168 </r>
       <r>    7.9884    0.8168 </r>
       <r>    9.4870    0.0000 </r>
       <r>    9.4870    0.0000 </r>
       <r>   11.1221    0.0000 </r>
       <r>   11.1221    0.0000 </r>
       <r>   12.5962    0.0000 </r>
       <r>   12.5962    0.0000 </r>
       <r>   14.0472    0.0000 </r>
       <r>   14.0472    0.0000 </r>
       <r>   17.0764    0.0000 </r>
       <r>   17.0764    0.0000 </r>
       <r>   20.4322    0.0000 </r>
       <r>   20.4322    0.0000 </r>
       <r>   21.4727    0.0000 </r>
       <r>   21.4727    0.0000 </r>
       <r>   22.8050    0.0000 </r>
       <r>   22.8050    0.0000 </r>
       <r>   23.6959    0.0000 </r>
       <r>   23.6960    0.0000 </r>
      </set>
      <set comment="kpoint 40">
       <r>   -0.5962    1.0000 </r>
       <r>    1.6144    1.0000 </r>
       <r>    1.6144    1.0000 </r>
       <r>    3.7896    1.0000 </r>
       <r>    7.4344    1.0000 </r>
       <r>    8.9268    0.0000 </r>
       <r>    9.5220    0.0000 </r>
       <r>    9.5220    0.0000 </r>
       <r>   11.0221    0.0000 </r>
       <r>   11.0221    0.0000 </r>
       <r>   11.6113    0.0000 </r>
       <r>   13.0838    0.0000 </r>
       <r>   14.5474    0.0000 </r>
       <r>   14.5474    0.0000 </r>
       <r>   15.8145    0.0000 </r>
       <r>   17.6383    0.0000 </r>
       <r>   19.6909    0.0000 </r>
       <r>   21.7180    0.0000 </r>
       <r>   22.0122    0.0000 </r>
       <r>   22.0122    0.0000 </r>
       <r>   22.6592    0.0000 </r>
       <r>   22.6593    0.0000 </r>
       <r>   23.1261    0.0000 </r>
       <r>   23.8513    0.0000 </r>
      </set>
      <set comment="kpoint 41">
       <r>   -0.1441    1.0000 </r>
       <r>    0.9622    1.0000 </r>
       <r>    2.0595    1.0000 </r>
       <r>    3.1482    1.0000 </r>
       <r>    7.8580    1.0000 </r>
       <r>    8.9017    0.0000 </r>
       <r>    9.3610    0.0000 </r>
       <r>    9.9464    0.0000 </r>
       <r>   10.4125    0.0000 </r>
       <r>   10.9911    0.0000 </r>
       <r>   11.4525    0.0000 </r>
       <r>   12.4852    0.0000 </r>
       <r>   14.9362    0.0000 </r>
       <r>   15.7573    0.0000 </r>
       <r>   15.9469    0.0000 </r>
       <r>   18.5221    0.0000 </r>
       <r>   18.7133    0.0000 </r>
       <r>   21.2954    0.0000 </r>
       <r>   21.5341    0.0000 </r>
       <r>   22.2173    0.0000 </r>
       <r>   22.3904    0.0000 </r>
       <r>   23.1443    0.0000 </r>
       <r>   23.4333    0.0000 </r>
       <r>   24.0104    0.0000 </r>
      </set>
      <set comment="kpoint 42">
       <r>    0.3757    1.0000 </r>
       <r>    0.3757    1.0000 </r>
       <r>    2.5711    1.0000 </r>
       <r>    2.5711    1.0000 </r>
       <r>    8.3471    0.0000 </r>
       <r>    8.3471    0.0000 </r>
       <r>    9.8572    0.0000 </r>
       <r>    9.8572    0.0000 </r>
       <r>   10.4361    0.0000 </r>
       <r>   10.4361    0.0000 </r>
       <r>   11.9405    0.0000 </r>
       <r>   11.9405    0.0000 </r>
       <r>   15.3604    0.0000 </r>
       <r>   15.3604    0.0000 </r>
       <r>   17.3628    0.0000 </r>
       <r>   17.3628    0.0000 </r>
       <r>   19.8510    0.0000 </r>
       <r>   19.8510    0.0000 </r>
       <r>   21.8025    0.0000 </r>
       <r>   21.8025    0.0000 </r>
       <r>   22.7933    0.0000 </r>
       <r>   22.7933    0.0000 </r>
       <r>   24.2187    0.0000 </r>
       <r>   24.2190    0.0000 </r>
      </set>
      <set comment="kpoint 43">
       <r>    0.3066    1.0000 </r>
       <r>    1.4094    1.0000 </r>
       <r>    1.4094    1.0000 </r>
       <r>    2.5035    1.0000 </r>
       <r>    8.2818    0.0000 </r>
       <r>    9.3259    0.0000 </r>
       <r>    9.3259    0.0000 </r>
       <r>    9.7944    0.0000 </r>
       <r>   10.3706    0.0000 </r>
       <r>   10.8435    0.0000 </r>
       <r>   10.8435    0.0000 </r>
       <r>   11.8825    0.0000 </r>
       <r>   16.3020    0.0000 </r>
       <r>   16.3020    0.0000 </r>
       <r>   16.6058    0.0000 </r>
       <r>   18.5077    0.0000 </r>
       <r>   18.5490    0.0000 </r>
       <r>   20.5597    0.0000 </r>
       <r>   20.7866    0.0000 </r>
       <r>   20.7866    0.0000 </r>
       <r>   23.7772    0.0000 </r>
       <r>   23.7772    0.0000 </r>
       <r>   24.0114    0.0000 </r>
       <r>   24.9237    0.0000 </r>
      </set>
      <set comment="kpoint 44">
       <r>    0.8247    1.0000 </r>
       <r>    0.8247    1.0000 </r>
       <r>    1.9235    1.0000 </r>
       <r>    1.9235    1.0000 </r>
       <r>    8.7711    0.0000 </r>
       <r>    8.7711    0.0000 </r>
       <r>    9.8156    0.0000 </r>
       <r>    9.8156    0.0000 </r>
       <r>   10.2895    0.0000 </r>
       <r>   10.2895    0.0000 </r>
       <r>   11.3341    0.0000 </r>
       <r>   11.3341    0.0000 </r>
       <r>   16.6245    0.0000 </r>
       <r>   16.6245    0.0000 </r>
       <r>   17.6113    0.0000 </r>
       <r>   17.6113    0.0000 </r>
       <r>   19.4293    0.0000 </r>
       <r>   19.4293    0.0000 </r>
       <r>   20.4385    0.0000 </r>
       <r>   20.4385    0.0000 </r>
       <r>   24.0770    0.0000 </r>
       <r>   24.0770    0.0000 </r>
       <r>   25.0898    0.0000 </r>
       <r>   25.0969    0.0000 </r>
      </set>
      <set comment="kpoint 45">
       <r>    1.3409    1.0000 </r>
       <r>    1.3409    1.0000 </r>
       <r>    1.3409    1.0000 </r>
       <r>    1.3409    1.0000 </r>
       <r>    9.2606    0.0000 </r>
       <r>    9.2606    0.0000 </r>
       <r>    9.2606    0.0000 </r>
       <r>    9.2606    0.0000 </r>
       <r>   10.7826    0.0000 </r>
       <r>   10.7826    0.0000 </r>
       <r>   10.7826    0.0000 </r>
       <r>   10.7826    0.0000 </r>
       <r>   17.5183    0.0000 </r>
       <r>   17.5183    0.0000 </r>
       <r>   17.5183    0.0000 </r>
       <r>   17.5183    0.0000 </r>
       <r>   19.4848    0.0000 </r>
       <r>   19.4848    0.0000 </r>
       <r>   19.4848    0.0000 </r>
       <r>   19.4848    0.0000 </r>
       <r>   25.0246    0.0000 </r>
       <r>   25.0248    0.0000 </r>
       <r>   25.0248    0.0000 </r>
       <r>   25.0280    0.0000 </r>
      </set>
      <set comment="kpoint 46">
       <r>   -3.0202    1.0000 </r>
       <r>    4.5857    1.0000 </r>
       <r>    4.5857    1.0000 </r>
       <r>    4.5857    1.0000 </r>
       <r>    7.1238    1.0000 </r>
       <r>    7.1238    1.0000 </r>
       <r>    7.1238    1.0000 </r>
       <r>   11.8612    0.0000 </r>
       <r>   11.8612    0.0000 </r>
       <r>   11.8612    0.0000 </r>
       <r>   13.7174    0.0000 </r>
       <r>   13.7174    0.0000 </r>
       <r>   13.7174    0.0000 </r>
       <r>   14.6368    0.0000 </r>
       <r>   14.6368    0.0000 </r>
       <r>   14.6368    0.0000 </r>
       <r>   17.7955    0.0000 </r>
       <r>   17.7955    0.0000 </r>
       <r>   17.7955    0.0000 </r>
       <r>   18.8685    0.0000 </r>
       <r>   20.2826    0.0000 </r>
       <r>   20.2826    0.0000 </r>
       <r>   22.7000    0.0000 </r>
       <r>   22.7014    0.0000 </r>
      </set>
      <set comment="kpoint 47">
       <r>   -2.9139    1.0000 </r>
       <r>    3.6866    1.0000 </r>
       <r>    4.6851    1.0000 </r>
       <r>    4.6851    1.0000 </r>
       <r>    7.2236    1.0000 </r>
       <r>    7.2236    1.0000 </r>
       <r>    8.2064    0.0000 </r>
       <r>   10.9831    0.0000 </r>
       <r>   10.9831    0.0000 </r>
       <r>   11.9597    0.0000 </r>
       <r>   13.3271    0.0000 </r>
       <r>   13.3271    0.0000 </r>
       <r>   13.8076    0.0000 </r>
       <r>   14.7362    0.0000 </r>
       <r>   15.4621    0.0000 </r>
       <r>   15.4621    0.0000 </r>
       <r>   17.8899    0.0000 </r>
       <r>   18.0396    0.0000 </r>
       <r>   18.5936    0.0000 </r>
       <r>   18.5936    0.0000 </r>
       <r>   19.5225    0.0000 </r>
       <r>   20.2851    0.0000 </r>
       <r>   22.4186    0.0000 </r>
       <r>   23.1322    0.0000 </r>
      </set>
      <set comment="kpoint 48">
       <r>   -2.7370    1.0000 </r>
       <r>    2.7948    1.0000 </r>
       <r>    4.8505    1.0000 </r>
       <r>    4.8505    1.0000 </r>
       <r>    7.3884    1.0000 </r>
       <r>    7.3884    1.0000 </r>
       <r>    9.4033    0.0000 </r>
       <r>   10.1257    0.0000 </r>
       <r>   10.1257    0.0000 </r>
       <r>   12.1241    0.0000 </r>
       <r>   12.6285    0.0000 </r>
       <r>   12.6285    0.0000 </r>
       <r>   13.9581    0.0000 </r>
       <r>   14.9017    0.0000 </r>
       <r>   16.6006    0.0000 </r>
       <r>   16.6006    0.0000 </r>
       <r>   17.2244    0.0000 </r>
       <r>   18.0463    0.0000 </r>
       <r>   18.7489    0.0000 </r>
       <r>   19.6019    0.0000 </r>
       <r>   19.6019    0.0000 </r>
[...]
        <r>  0.0397  0.0014  0.0103  0.0145  0.0000  0.0000  0.0000  0.0000  0.0000 </r>
       </set>
       <set comment="band 2">
        <r>  0.0596  0.0203  0.0155  0.0016  0.0000  0.0000  0.0000  0.0000  0.0000 </r>
        <r>  0.0616  0.0196  0.0160  0.0022  0.0000  0.0000  0.0000  0.0000  0.0000 </r>
        <r>  0.0047  0.0022  0.0012  0.0196  0.0000  0.0000  0.0000  0.0000  0.0000 </r>
        <r>  0.0066  0.0016  0.0017  0.0203  0.0000  0.0000  0.0000  0.0000  0.0000 </r>
       </set>
       <set comment="band 3">
        <r>  0.0029  0.0068  0.0007  0.0197  0.0000  0.0000  0.0000  0.0000  0.0000 </r>
        <r>  0.0206  0.0009  0.0053  0.0162  0.0000  0.0000  0.0000  0.0000  0.0000 </r>
        <r>  0.0599  0.0162  0.0156  0.0009  0.0000  0.0000  0.0000  0.0000  0.0000 </r>
        <r>  0.0493  0.0197  0.0128  0.0068  0.0000  0.0000  0.0000  0.0000  0.0000 </r>
       </set>
       <set comment="band 4">
        <r>  0.0254  0.0021  0.0066  0.0210  0.0000  0.0000  0.0000  0.0000  0.0000 </r>
        <r>  0.0065  0.0084  0.0017  0.0122  0.0000  0.0000  0.0000  0.0000  0.0000 </r>
        <r>  0.0637  0.0122  0.0166  0.0084  0.0000  0.0000  0.0000  0.0000  0.0000 </r>
        <r>  0.0370  0.0210  0.0096  0.0021  0.0000  0.0000  0.0000  0.0000  0.0000 </r>
       </set>
       <set comment="band 5">
        <r>  0.0672  0.0092  0.0143  0.0055  0.0000  0.0000  0.0000  0.0000  0.0000 </r>
        <r>  0.0601  0.0103  0.0128  0.0023  0.0000  0.0000  0.0000  0.0000  0.0000 </r>
        <r>  0.0357  0.0023  0.0076  0.0103  0.0000  0.0000  0.0000  0.0000  0.0000 </r>
        <r>  0.0152  0.0055  0.0032  0.0092  0.0000  0.0000  0.0000  0.0000  0.0000 </r>
       </set>
       <set comment="band 6">
        <r>  0.0526  0.0066  0.0112  0.0079  0.0000  0.0000  0.0000  0.0000  0.0000 </r>
        <r>  0.0428  0.0081  0.0091  0.0048  0.0000  0.0000  0.0000  0.0000  0.0000 </r>
        <r>  0.0514  0.0048  0.0109  0.0081  0.0000  0.0000  0.0000  0.0000  0.0000 </r>
        <r>  0.0313  0.0079  0.0066  0.0066  0.0000  0.0000  0.0000  0.0000  0.0000 </r>
       </set>
       <set comment="band 7">
        <r>  0.0470  0.0043  0.0100  0.0053  0.0000  0.0000  0.0000  0.0000  0.0000 </r>
        <r>  0.0280  0.0072  0.0060  0.0105  0.0000  0.0000  0.0000  0.0000  0.0000 </r>
        <r>  0.0346  0.0105  0.0073  0.0072  0.0000  0.0000  0.0000  0.0000  0.0000 </r>
        <r>  0.0686  0.0053  0.0146  0.0043  0.0000  0.0000  0.0000  0.0000  0.0000 </r>
       </set>
       <set comment="band 8">
        <r>  0.0114  0.0073  0.0024  0.0087  0.0000  0.0000  0.0000  0.0000  0.0000 </r>
        <r>  0.0473  0.0017  0.0100  0.0097  0.0000  0.0000  0.0000  0.0000  0.0000 </r>
        <r>  0.0565  0.0097  0.0120  0.0017  0.0000  0.0000  0.0000  0.0000  0.0000 </r>
        <r>  0.0630  0.0087  0.0134  0.0073  0.0000  0.0000  0.0000  0.0000  0.0000 </r>
       </set>
       <set comment="band 9">
        <r>  0.0028  0.0089  0.0522  0.0119  0.0000  0.0000  0.0000  0.0000  0.0000 </r>
        <r>  0.0023  0.0111  0.0417  0.0030  0.0000  0.0000  0.0000  0.0000  0.0000 </r>
        <r>  0.0030  0.0030  0.0560  0.0111  0.0000  0.0000  0.0000  0.0000  0.0000 </r>
        <r>  0.0008  0.0119  0.0142  0.0089  0.0000  0.0000  0.0000  0.0000  0.0000 </r>
       </set>
       <set comment="band 10">
        <r>  0.0025  0.0033  0.0469  0.0009  0.0000  0.0000  0.0000  0.0000  0.0000 </r>
        <r>  0.0008  0.0100  0.0156  0.0207  0.0000  0.0000  0.0000  0.0000  0.0000 </r>
        <r>  0.0002  0.0207  0.0044  0.0100  0.0000  0.0000  0.0000  0.0000  0.0000 </r>
        <r>  0.0053  0.0009  0.0972  0.0033  0.0000  0.0000  0.0000  0.0000  0.0000 </r>
       </set>
       <set comment="band 11">
        <r>  0.0033  0.0019  0.0603  0.0139  0.0000  0.0000  0.0000  0.0000  0.0000 </r>
        <r>  0.0005  0.0128  0.0088  0.0063  0.0000  0.0000  0.0000  0.0000  0.0000 </r>
        <r>  0.0035  0.0063  0.0653  0.0128  0.0000  0.0000  0.0000  0.0000  0.0000 </r>
        <r>  0.0016  0.0139  0.0297  0.0019  0.0000  0.0000  0.0000  0.0000  0.0000 </r>
       </set>
       <set comment="band 12">
        <r>  0.0003  0.0209  0.0047  0.0082  0.0000  0.0000  0.0000  0.0000  0.0000 </r>
        <r>  0.0053  0.0010  0.0980  0.0049  0.0000  0.0000  0.0000  0.0000  0.0000 </r>
        <r>  0.0021  0.0049  0.0384  0.0010  0.0000  0.0000  0.0000  0.0000  0.0000 </r>
        <r>  0.0012  0.0082  0.0229  0.0209  0.0000  0.0000  0.0000  0.0000  0.0000 </r>
       </set>
       <set comment="band 13">
        <r>  0.0000  0.0092  0.0000  0.0652  0.0000  0.0000  0.0000  0.0000  0.0000 </r>
        <r>  0.0000  0.0136  0.0000  0.0420  0.0000  0.0000  0.0000  0.0000  0.0000 </r>
        <r>  0.0000  0.0420  0.0000  0.0136  0.0000  0.0000  0.0000  0.0000  0.0000 </r>
        <r>  0.0000  0.0652  0.0000  0.0092  0.0000  0.0000  0.0000  0.0000  0.0000 </r>
       </set>
       <set comment="band 14">
        <r>  0.0000  0.0241  0.0000  0.0225  0.0000  0.0000  0.0000  0.0000  0.0000 </r>
        <r>  0.0000  0.0708  0.0000  0.0127  0.0000  0.0000  0.0000  0.0000  0.0000 </r>
        <r>  0.0000  0.0127  0.0000  0.0708  0.0000  0.0000  0.0000  0.0000  0.0000 </r>
        <r>  0.0000  0.0225  0.0000  0.0241  0.0000  0.0000  0.0000  0.0000  0.0000 </r>
       </set>
       <set comment="band 15">
        <r>  0.0000  0.0696  0.0000  0.0001  0.0000  0.0000  0.0000  0.0000  0.0000 </r>
        <r>  0.0000  0.0421  0.0000  0.0182  0.0000  0.0000  0.0000  0.0000  0.0000 </r>
        <r>  0.0000  0.0182  0.0000  0.0421  0.0000  0.0000  0.0000  0.0000  0.0000 </r>
        <r>  0.0000  0.0001  0.0000  0.0696  0.0000  0.0000  0.0000  0.0000  0.0000 </r>
       </set>
       <set comment="band 16">
        <r>  0.0000  0.0271  0.0000  0.0423  0.0000  0.0000  0.0000  0.0000  0.0000 </r>
        <r>  0.0000  0.0035  0.0000  0.0572  0.0000  0.0000  0.0000  0.0000  0.0000 </r>
        <r>  0.0000  0.0572  0.0000  0.0035  0.0000  0.0000  0.0000  0.0000  0.0000 </r>
        <r>  0.0000  0.0423  0.0000  0.0271  0.0000  0.0000  0.0000  0.0000  0.0000 </r>
       </set>
       <set comment="band 17">
        <r>  0.0000  0.0138  0.0000  0.0073  0.0000  0.0000  0.0000  0.0000  0.0000 </r>
        <r>  0.0000  0.0676  0.0000  0.0209  0.0000  0.0000  0.0000  0.0000  0.0000 </r>
        <r>  0.0000  0.0209  0.0000  0.0676  0.0000  0.0000  0.0000  0.0000  0.0000 </r>
        <r>  0.0000  0.0073  0.0000  0.0138  0.0000  0.0000  0.0000  0.0000  0.0000 </r>
       </set>
       <set comment="band 18">
        <r>  0.0000  0.0337  0.0000  0.0537  0.0000  0.0000  0.0000  0.0000  0.0000 </r>
        <r>  0.0000  0.0112  0.0000  0.0111  0.0000  0.0000  0.0000  0.0000  0.0000 </r>
        <r>  0.0000  0.0111  0.0000  0.0112  0.0000  0.0000  0.0000  0.0000  0.0000 </r>
        <r>  0.0000  0.0537  0.0000  0.0337  0.0000  0.0000  0.0000  0.0000  0.0000 </r>
       </set>
       <set comment="band 19">
        <r>  0.0000  0.0302  0.0000  0.0101  0.0000  0.0000  0.0000  0.0000  0.0000 </r>
        <r>  0.0000  0.0188  0.0000  0.0507  0.0000  0.0000  0.0000  0.0000  0.0000 </r>
        <r>  0.0000  0.0507  0.0000  0.0188  0.0000  0.0000  0.0000  0.0000  0.0000 </r>
        <r>  0.0000  0.0101  0.0000  0.0302  0.0000  0.0000  0.0000  0.0000  0.0000 </r>
       </set>
       <set comment="band 20">
        <r>  0.0000  0.0320  0.0000  0.0386  0.0000  0.0000  0.0000  0.0000  0.0000 </r>
        <r>  0.0000  0.0121  0.0000  0.0270  0.0000  0.0000  0.0000  0.0000  0.0000 </r>
        <r>  0.0000  0.0270  0.0000  0.0121  0.0000  0.0000  0.0000  0.0000  0.0000 </r>
        <r>  0.0000  0.0386  0.0000  0.0320  0.0000  0.0000  0.0000  0.0000  0.0000 </r>
       </set>
       <set comment="band 21">
        <r>  0.0005  0.0167  0.0053  0.0080  0.0000  0.0000  0.0000  0.0000  0.0000 </r>
        <r>  0.0047  0.0018  0.0481  0.0179  0.0000  0.0000  0.0000  0.0000  0.0000 </r>
        <r>  0.0023  0.0179  0.0231  0.0018  0.0000  0.0000  0.0000  0.0000  0.0000 </r>
        <r>  0.0051  0.0080  0.0515  0.0167  0.0000  0.0000  0.0000  0.0000  0.0000 </r>
       </set>
       <set comment="band 22">
        <r>  0.0031  0.0027  0.0314  0.0239  0.0000  0.0000  0.0000  0.0000  0.0000 </r>
        <r>  0.0008  0.0109  0.0078  0.0070  0.0000  0.0000  0.0000  0.0000  0.0000 </r>
        <r>  0.0068  0.0070  0.0687  0.0109  0.0000  0.0000  0.0000  0.0000  0.0000 </r>
        <r>  0.0020  0.0239  0.0201  0.0027  0.0000  0.0000  0.0000  0.0000  0.0000 </r>
       </set>
       <set comment="band 23">
        <r>  0.0027  0.0168  0.0274  0.0020  0.0000  0.0000  0.0000  0.0000  0.0000 </r>
        <r>  0.0047  0.0095  0.0482  0.0162  0.0000  0.0000  0.0000  0.0000  0.0000 </r>
        <r>  0.0006  0.0162  0.0058  0.0095  0.0000  0.0000  0.0000  0.0000  0.0000 </r>
        <r>  0.0046  0.0020  0.0466  0.0168  0.0000  0.0000  0.0000  0.0000  0.0000 </r>
       </set>
       <set comment="band 24">
        <r>  0.0063  0.0083  0.0639  0.0106  0.0000  0.0000  0.0000  0.0000  0.0000 </r>
        <r>  0.0023  0.0222  0.0239  0.0034  0.0000  0.0000  0.0000  0.0000  0.0000 </r>
        <r>  0.0030  0.0034  0.0304  0.0222  0.0000  0.0000  0.0000  0.0000  0.0000 </r>
        <r>  0.0010  0.0106  0.0098  0.0083  0.0000  0.0000  0.0000  0.0000  0.0000 </r>
       </set>
      </set>
      <set comment="kpoint 165">
       <set comment="band 1">
        <r>  0.0000  0.0080  0.0271  0.0265  0.0000  0.0000  0.0000  0.0000  0.0000 </r>
        <r>  0.0000  0.0271  0.0080  0.0096  0.0000  0.0000  0.0000  0.0000  0.0000 </r>
        <r>  0.0000  0.0096  0.0265  0.0271  0.0000  0.0000  0.0000  0.0000  0.0000 </r>
        <r>  0.0000  0.0265  0.0096  0.0080  0.0000  0.0000  0.0000  0.0000  0.0000 </r>
       </set>
       <set comment="band 2">
        <r>  0.0000  0.0020  0.0086  0.0183  0.0000  0.0000  0.0000  0.0000  0.0000 </r>
        <r>  0.0000  0.0086  0.0020  0.0423  0.0000  0.0000  0.0000  0.0000  0.0000 </r>
        <r>  0.0000  0.0423  0.0183  0.0086  0.0000  0.0000  0.0000  0.0000  0.0000 </r>
        <r>  0.0000  0.0183  0.0423  0.0020  0.0000  0.0000  0.0000  0.0000  0.0000 </r>
       </set>
       <set comment="band 3">
        <r>  0.0000  0.0415  0.0018  0.0157  0.0000  0.0000  0.0000  0.0000  0.0000 </r>
        <r>  0.0000  0.0018  0.0415  0.0122  0.0000  0.0000  0.0000  0.0000  0.0000 </r>
        <r>  0.0000  0.0122  0.0157  0.0018  0.0000  0.0000  0.0000  0.0000  0.0000 </r>
        <r>  0.0000  0.0157  0.0122  0.0415  0.0000  0.0000  0.0000  0.0000  0.0000 </r>
       </set>
       <set comment="band 4">
        <r>  0.0000  0.0197  0.0337  0.0108  0.0000  0.0000  0.0000  0.0000  0.0000 </r>
        <r>  0.0000  0.0337  0.0197  0.0070  0.0000  0.0000  0.0000  0.0000  0.0000 </r>
        <r>  0.0000  0.0070  0.0108  0.0337  0.0000  0.0000  0.0000  0.0000  0.0000 </r>
        <r>  0.0000  0.0108  0.0070  0.0197  0.0000  0.0000  0.0000  0.0000  0.0000 </r>
       </set>
       <set comment="band 5">
        <r>  0.1044  0.0000  0.0000  0.0000  0.0000  0.0000  0.0000  0.0000  0.0000 </r>
        <r>  0.0384  0.0000  0.0000  0.0000  0.0000  0.0000  0.0000  0.0000  0.0000 </r>
        <r>  0.0058  0.0000  0.0000  0.0000  0.0000  0.0000  0.0000  0.0000  0.0000 </r>
        <r>  0.1633  0.0000  0.0000  0.0000  0.0000  0.0000  0.0000  0.0000  0.0000 </r>
       </set>
       <set comment="band 6">
        <r>  0.0866  0.0000  0.0000  0.0000  0.0000  0.0000  0.0000  0.0000  0.0000 </r>
        <r>  0.1877  0.0000  0.0000  0.0000  0.0000  0.0000  0.0000  0.0000  0.0000 </r>
        <r>  0.0272  0.0000  0.0000  0.0000  0.0000  0.0000  0.0000  0.0000  0.0000 </r>
        <r>  0.0104  0.0000  0.0000  0.0000  0.0000  0.0000  0.0000  0.0000  0.0000 </r>
       </set>
       <set comment="band 7">
        <r>  0.0134  0.0000  0.0000  0.0000  0.0000  0.0000  0.0000  0.0000  0.0000 </r>
        <r>  0.0537  0.0000  0.0000  0.0000  0.0000  0.0000  0.0000  0.0000  0.0000 </r>
        <r>  0.1950  0.0000  0.0000  0.0000  0.0000  0.0000  0.0000  0.0000  0.0000 </r>
        <r>  0.0497  0.0000  0.0000  0.0000  0.0000  0.0000  0.0000  0.0000  0.0000 </r>
       </set>
       <set comment="band 8">
        <r>  0.1075  0.0000  0.0000  0.0000  0.0000  0.0000  0.0000  0.0000  0.0000 </r>
        <r>  0.0321  0.0000  0.0000  0.0000  0.0000  0.0000  0.0000  0.0000  0.0000 </r>
        <r>  0.0839  0.0000  0.0000  0.0000  0.0000  0.0000  0.0000  0.0000  0.0000 </r>
        <r>  0.0884  0.0000  0.0000  0.0000  0.0000  0.0000  0.0000  0.0000  0.0000 </r>
       </set>
       <set comment="band 9">
        <r>  0.0000  0.0793  0.0115  0.0188  0.0000  0.0000  0.0000  0.0000  0.0000 </r>
        <r>  0.0000  0.0863  0.1427  0.0086  0.0000  0.0000  0.0000  0.0000  0.0000 </r>
        <r>  0.0000  0.0101  0.0141  0.0433  0.0000  0.0000  0.0000  0.0000  0.0000 </r>
        <r>  0.0000  0.0528  0.0040  0.0093  0.0000  0.0000  0.0000  0.0000  0.0000 </r>
       </set>
       <set comment="band 10">
        <r>  0.0000  0.0205  0.0938  0.0349  0.0000  0.0000  0.0000  0.0000  0.0000 </r>
        <r>  0.0000  0.0054  0.0082  0.1120  0.0000  0.0000  0.0000  0.0000  0.0000 </r>
        <r>  0.0000  0.0084  0.0537  0.0564  0.0000  0.0000  0.0000  0.0000  0.0000 </r>
        <r>  0.0000  0.0024  0.0806  0.0041  0.0000  0.0000  0.0000  0.0000  0.0000 </r>
       </set>
       <set comment="band 11">
        <r>  0.0000  0.0563  0.0180  0.0452  0.0000  0.0000  0.0000  0.0000  0.0000 </r>
        <r>  0.0000  0.0241  0.0130  0.0135  0.0000  0.0000  0.0000  0.0000  0.0000 </r>
        <r>  0.0000  0.0540  0.0444  0.0579  0.0000  0.0000  0.0000  0.0000  0.0000 </r>
        <r>  0.0000  0.0271  0.0345  0.0926  0.0000  0.0000  0.0000  0.0000  0.0000 </r>
       </set>
       <set comment="band 12">
        <r>  0.0000  0.0013  0.0711  0.0296  0.0000  0.0000  0.0000  0.0000  0.0000 </r>
        <r>  0.0000  0.0066  0.0088  0.0852  0.0000  0.0000  0.0000  0.0000  0.0000 </r>
        <r>  0.0000  0.0857  0.0132  0.0344  0.0000  0.0000  0.0000  0.0000  0.0000 </r>
        <r>  0.0000  0.0033  0.1249  0.0165  0.0000  0.0000  0.0000  0.0000  0.0000 </r>
       </set>
       <set comment="band 13">
        <r>  0.0000  0.0513  0.0184  0.0339  0.0000  0.0000  0.0000  0.0000  0.0000 </r>
        <r>  0.0000  0.0844  0.0336  0.0620  0.0000  0.0000  0.0000  0.0000  0.0000 </r>
        <r>  0.0000  0.0180  0.0514  0.0743  0.0000  0.0000  0.0000  0.0000  0.0000 </r>
        <r>  0.0000  0.0075  0.0207  0.0251  0.0000  0.0000  0.0000  0.0000  0.0000 </r>
       </set>
       <set comment="band 14">
        <r>  0.0000  0.0160  0.0681  0.0121  0.0000  0.0000  0.0000  0.0000  0.0000 </r>
        <r>  0.0000  0.0461  0.0318  0.0361  0.0000  0.0000  0.0000  0.0000  0.0000 </r>
        <r>  0.0000  0.1252  0.0056  0.0280  0.0000  0.0000  0.0000  0.0000  0.0000 </r>
        <r>  0.0000  0.0324  0.0320  0.0473  0.0000  0.0000  0.0000  0.0000  0.0000 </r>
       </set>
       <set comment="band 15">
        <r>  0.0000  0.0843  0.0220  0.0351  0.0000  0.0000  0.0000  0.0000  0.0000 </r>
        <r>  0.0000  0.0615  0.0303  0.0020  0.0000  0.0000  0.0000  0.0000  0.0000 </r>
        <r>  0.0000  0.0095  0.0860  0.0184  0.0000  0.0000  0.0000  0.0000  0.0000 </r>
        <r>  0.0000  0.0169  0.0194  0.0953  0.0000  0.0000  0.0000  0.0000  0.0000 </r>
       </set>
       <set comment="band 16">
        <r>  0.0000  0.0113  0.0176  0.1109  0.0000  0.0000  0.0000  0.0000  0.0000 </r>
        <r>  0.0000  0.0059  0.0521  0.0010  0.0000  0.0000  0.0000  0.0000  0.0000 </r>
        <r>  0.0000  0.0095  0.0521  0.0078  0.0000  0.0000  0.0000  0.0000  0.0000 </r>
        <r>  0.0000  0.1779  0.0043  0.0301  0.0000  0.0000  0.0000  0.0000  0.0000 </r>
       </set>
       <set comment="band 17">
        <r>  0.0000  0.0000  0.0000  0.0000  0.0000  0.0000  0.0000  0.0000  0.0000 </r>
        <r>  0.0000  0.0000  0.0000  0.0000  0.0000  0.0000  0.0000  0.0000  0.0000 </r>
        <r>  0.0000  0.0000  0.0000  0.0000  0.0000  0.0000  0.0000  0.0000  0.0000 </r>
        <r>  0.0000  0.0000  0.0000  0.0000  0.0000  0.0000  0.0000  0.0000  0.0000 </r>
       </set>
       <set comment="band 18">
        <r>  0.0000  0.0000  0.0000  0.0000  0.0000  0.0000  0.0000  0.0000  0.0000 </r>
        <r>  0.0000  0.0000  0.0000  0.0000  0.0000  0.0000  0.0000  0.0000  0.0000 </r>
        <r>  0.0000  0.0000  0.0000  0.0000  0.0000  0.0000  0.0000  0.0000  0.0000 </r>
        <r>  0.0000  0.0000  0.0000  0.0000  0.0000  0.0000  0.0000  0.0000  0.0000 </r>
       </set>
       <set comment="band 19">
        <r>  0.0000  0.0000  0.0000  0.0000  0.0000  0.0000  0.0000  0.0000  0.0000 </r>
        <r>  0.0000  0.0000  0.0000  0.0000  0.0000  0.0000  0.0000  0.0000  0.0000 </r>
        <r>  0.0000  0.0000  0.0000  0.0000  0.0000  0.0000  0.0000  0.0000  0.0000 </r>
        <r>  0.0000  0.0000  0.0000  0.0000  0.0000  0.0000  0.0000  0.0000  0.0000 </r>
       </set>
       <set comment="band 20">
        <r>  0.0000  0.0000  0.0000  0.0000  0.0000  0.0000  0.0000  0.0000  0.0000 </r>
        <r>  0.0000  0.0000  0.0000  0.0000  0.0000  0.0000  0.0000  0.0000  0.0000 </r>
        <r>  0.0000  0.0000  0.0000  0.0000  0.0000  0.0000  0.0000  0.0000  0.0000 </r>
        <r>  0.0000  0.0000  0.0000  0.0000  0.0000  0.0000  0.0000  0.0000  0.0000 </r>
       </set>
       <set comment="band 21">
        <r>  0.0000  0.0000  0.0000  0.0000  0.0000  0.0000  0.0000  0.0000  0.0000 </r>
        <r>  0.0000  0.0000  0.0000  0.0000  0.0000  0.0000  0.0000  0.0000  0.0000 </r>
        <r>  0.0000  0.0000  0.0000  0.0000  0.0000  0.0000  0.0000  0.0000  0.0000 </r>
        <r>  0.0000  0.0000  0.0000  0.0000  0.0000  0.0000  0.0000  0.0000  0.0000 </r>
       </set>
       <set comment="band 22">
        <r>  0.0000  0.0000  0.0000  0.0000  0.0000  0.0000  0.0000  0.0000  0.0000 </r>
        <r>  0.0000  0.0000  0.0000  0.0000  0.0000  0.0000  0.0000  0.0000  0.0000 </r>
        <r>  0.0000  0.0000  0.0000  0.0000  0.0000  0.0000  0.0000  0.0000  0.0000 </r>
        <r>  0.0000  0.0000  0.0000  0.0000  0.0000  0.0000  0.0000  0.0000  0.0000 </r>
       </set>
       <set comment="band 23">
        <r>  0.0000  0.0000  0.0000  0.0000  0.0000  0.0000  0.0000  0.0000  0.0000 </r>
        <r>  0.0000  0.0000  0.0000  0.0000  0.0000  0.0000  0.0000  0.0000  0.0000 </r>
        <r>  0.0000  0.0000  0.0000  0.0000  0.0000  0.0000  0.0000  0.0000  0.0000 </r>
        <r>  0.0000  0.0000  0.0000  0.0000  0.0000  0.0000  0.0000  0.0000  0.0000 </r>
       </set>
       <set comment="band 24">
        <r>  0.0000  0.0000  0.0000  0.0000  0.0000  0.0000  0.0000  0.0000  0.0000 </r>
        <r>  0.0000  0.0000  0.0000  0.0000  0.0000  0.0000  0.0000  0.0000  0.0000 </r>
        <r>  0.0000  0.0000  0.0000  0.0000  0.0000  0.0000  0.0000  0.0000  0.0000 </r>
        <r>  0.0000  0.0000  0.0000  0.0000  0.0000  0.0000  0.0000  0.0000  0.0000 </r>
       </set>
      </set>
     </set>
    </set>
   </array>
  </projected>
 </calculation>
 <structure name="finalpos" >
  <crystal>
   <varray name="basis" >
    <v>       4.03841317       0.00000000       0.00000000 </v>
    <v>       0.00000000       4.03841317       0.00000000 </v>
    <v>       0.00000000       0.00000000       4.03841317 </v>
   </varray>
   <i name="volume">     65.86159565 </i>
   <varray name="rec_basis" >
    <v>       0.24762201       0.00000000       0.00000000 </v>
    <v>       0.00000000       0.24762201       0.00000000 </v>
    <v>       0.00000000       0.00000000       0.24762201 </v>
   </varray>
  </crystal>
  <varray name="positions" >
   <v>       0.00000000       0.00000000       0.00000000 </v>
   <v>       0.00000000       0.50000000       0.50000000 </v>
   <v>       0.50000000       0.00000000       0.50000000 </v>
   <v>       0.50000000       0.50000000       0.00000000 </v>
  </varray>
 </structure>
</modeling>
