       N       E                     dE             d eps       ncg     rms          rms(c)
DAV:   1     0.341462055323E+03    0.34146E+03   -0.27362E+04   960   0.972E+02
DAV:   2    -0.871801698103E+01   -0.35018E+03   -0.34616E+03  1248   0.261E+02
DAV:   3    -0.200222540706E+02   -0.11304E+02   -0.11298E+02  1128   0.530E+01
DAV:   4    -0.201442939848E+02   -0.12204E+00   -0.12204E+00  1656   0.415E+00
DAV:   5    -0.201446128560E+02   -0.31887E-03   -0.31887E-03  1128   0.177E-01    0.106E+01
DAV:   6    -0.192647988154E+02    0.87981E+00   -0.25644E+00  1080   0.923E+00    0.857E+00
DAV:   7    -0.192077260537E+02    0.57073E-01   -0.80466E-01  1032   0.296E+00    0.312E+00
DAV:   8    -0.192080008588E+02   -0.27481E-03   -0.58331E-02  1128   0.175E+00    0.984E-01
DAV:   9    -0.192090423289E+02   -0.10415E-02   -0.67451E-03  1200   0.528E-01    0.200E-01
DAV:  10    -0.192090966936E+02   -0.54365E-04   -0.90375E-04  1272   0.182E-01
   1 F= -.19209097E+02 E0= -.19209097E+02  d E =-.537703E-16
