       N       E                     dE             d eps       ncg     rms          rms(c)
DAV:   1    -0.792912586307E+01   -0.79291E+01   -0.39105E+03  7920   0.306E+02
DAV:   2    -0.150356242382E+02   -0.71065E+01   -0.70340E+01 11592   0.255E+01
DAV:   3    -0.150650190974E+02   -0.29395E-01   -0.29392E-01 10920   0.204E+00
DAV:   4    -0.150650589526E+02   -0.39855E-04   -0.39855E-04 13704   0.666E-02
DAV:   5    -0.150650589575E+02   -0.49882E-08   -0.52956E-08 10704   0.604E-04    0.272E+00
DAV:   6    -0.150117544063E+02    0.53305E-01   -0.59232E-03 11784   0.239E-01    0.158E+00
DAV:   7    -0.149727822772E+02    0.38972E-01   -0.17111E-02 10368   0.380E-01    0.276E-01
DAV:   8    -0.149726653425E+02    0.11693E-03   -0.79258E-05 14040   0.338E-02    0.475E-02
DAV:   9    -0.149726567687E+02    0.85738E-05   -0.35310E-06 10320   0.576E-03
   1 F= -.14972657E+02 E0= -.14971988E+02  d E =-.149727E+02
