 vasp.6.3.0 20Jan22 (build Feb 10 2022 15:15:41) complex                        
  
 executed on             LinuxIFC date 2023.09.09  16:12:33
 running on   24 total cores
 distrk:  each k-point on   24 cores,    1 groups
 distr:  one band on NCORE=   1 cores,   24 groups


--------------------------------------------------------------------------------------------------------


 INCAR:
   ENCUT = 400
   ISMEAR = 0
   SIGMA = 0.05
   IBRION = 2
   ISIF = 4
   NSW = 100
   EDIFF = 1E-05
   EDIFFG = -0.01

 POTCAR:    PAW_PBE Al 04Jan2001                  
 -----------------------------------------------------------------------------
|                                                                             |
|           W    W    AA    RRRRR   N    N  II  N    N   GGGG   !!!           |
|           W    W   A  A   R    R  NN   N  II  NN   N  G    G  !!!           |
|           W    W  A    A  R    R  N N  N  II  N N  N  G       !!!           |
|           W WW W  AAAAAA  RRRRR   N  N N  II  N  N N  G  GGG   !            |
|           WW  WW  A    A  R   R   N   NN  II  N   NN  G    G                |
|           W    W  A    A  R    R  N    N  II  N    N   GGGG   !!!           |
|                                                                             |
|     For optimal performance we recommend to set                             |
|       NCORE = 2 up to number-of-cores-per-socket                            |
|     NCORE specifies how many cores store one orbital (NPAR=cpu/NCORE).      |
|     This setting can greatly improve the performance of VASP for DFT.       |
|     The default, NCORE=1 might be grossly inefficient on modern             |
|     multi-core architectures or massively parallel machines. Do your        |
|     own testing! More info at https://www.vasp.at/wiki/index.php/NCORE      |
|     Unfortunately you need to use the default for GW and RPA                |
|     calculations (for HF NCORE is supported but not extensively tested      |
|     yet).                                                                   |
|                                                                             |
 -----------------------------------------------------------------------------

 POTCAR:    PAW_PBE Al 04Jan2001                  
   SHA256 =  17880443556af62b473fe41b62a467bd001ad55d2cabe504a3f22e34d4e9db96 Al/POTCAR             
   COPYR  = (c) Copyright 04Jan2001 Georg Kresse                                                    
   COPYR  = This file is part of the software VASP. Any use, copying, and all other rights are regul
   COPYR  = If you do not have a valid VASP license, you may not use, copy or distribute this file. 
   VRHFIN =Al: s2p1                                                                                 
   LEXCH  = PE                                                                                      
   EATOM  =    53.5387 eV,    3.9350 Ry                                                             
                                                                                                    
   TITEL  = PAW_PBE Al 04Jan2001                                                                    
   LULTRA =        F    use ultrasoft PP ?                                                          
   IUNSCR =        1    unscreen: 0-lin 1-nonlin 2-no                                               
   RPACOR =    1.500    partial core radius                                                         
   POMASS =   26.981; ZVAL   =    3.000    mass and valenz                                          
   RCORE  =    1.900    outmost cutoff radius                                                       
   RWIGS  =    2.650; RWIGS  =    1.402    wigner-seitz radius (au A)                               
   ENMAX  =  240.300; ENMIN  =  180.225 eV                                                          
   ICORE  =        2    local potential                                                             
   LCOR   =        T    correct aug charges                                                         
   LPAW   =        T    paw PP                                                                      
   EAUG   =  291.052                                                                                
   DEXC   =    0.000                                                                                
   RMAX   =    1.939    core radius for proj-oper                                                   
   RAUG   =    1.300    factor for augmentation sphere                                              
   RDEP   =    1.966    radius for radial grids                                                     
   RDEPT  =    1.856    core radius for aug-charge                                                  
                                                                                                    
   Atomic configuration                                                                             
    6 entries                                                                                       
     n  l   j            E        occ.                                                              
     1  0  0.50     -1511.1048   2.0000                                                             
     2  0  0.50      -108.1629   2.0000                                                             
     2  1  1.50       -69.6402   6.0000                                                             
     3  0  0.50        -7.7528   2.0000                                                             
     3  1  1.50        -2.7121   1.0000                                                             
     3  2  2.50        -2.7212   0.0000                                                             
   Description                                                                                      
     l       E           TYP  RCUT    TYP  RCUT                                                     
     0     -7.7528455     23  1.900                                                                 
     0     -3.3096929     23  1.900                                                                 
     1     -2.7120682     23  1.900                                                                 
     1     13.6058260     23  1.900                                                                 
     2     -2.7211652      7  1.900                                                                 
  local pseudopotential read in
  partial core-charges read in
  partial kinetic energy density read in
  atomic valenz-charges read in
  non local Contribution for L=           0  read in
    real space projection operators read in
  non local Contribution for L=           0  read in
    real space projection operators read in
  non local Contribution for L=           1  read in
    real space projection operators read in
  non local Contribution for L=           1  read in
    real space projection operators read in
    PAW grid and wavefunctions read in
 
   number of l-projection  operators is LMAX  =           4
   number of lm-projection operators is LMMAX =           8
 
  PAW_PBE Al 04Jan2001                  :
 energy of atom  1       EATOM=  -53.5387
 kinetic energy error for atom=    0.0005 (will be added to EATOM!!)
 
 
 POSCAR: Al4
  positions in direct lattice
  No initial velocities read in
 exchange correlation table for  LEXCH =        8
   RHO(1)=    0.500       N(1)  =     2000
   RHO(2)=  100.500       N(2)  =     4000
 


--------------------------------------------------------------------------------------------------------


 ion  position               nearest neighbor table
   1  0.000  0.000  0.000-   2 2.83   3 2.83   4 2.83   2 2.83   3 2.83   2 2.83   4 2.83   2 2.83
                             3 2.83   4 2.83   3 2.83   4 2.83
   2  0.000  0.500  0.500-   1 2.83   3 2.83   4 2.83   1 2.83   4 2.83   1 2.83   3 2.83   1 2.83
                             3 2.83   4 2.83   4 2.83   3 2.83
   3  0.500  0.000  0.500-   1 2.83   2 2.83   4 2.83   1 2.83   4 2.83   2 2.83   4 2.83   4 2.83
                             1 2.83   2 2.83   1 2.83   2 2.83
   4  0.500  0.500  0.000-   1 2.83   2 2.83   3 2.83   2 2.83   3 2.83   1 2.83   3 2.83   3 2.83
                             1 2.83   2 2.83   2 2.83   1 2.83
 
  LATTYP: Found a simple cubic cell.
 ALAT       =     3.9980290374
  
  Lattice vectors:
  
 A1 = (   3.9980290374,   0.0000000000,   0.0000000000)
 A2 = (   0.0000000000,   3.9980290374,   0.0000000000)
 A3 = (   0.0000000000,   0.0000000000,   3.9980290374)


Analysis of symmetry for initial positions (statically):
=====================================================================
 Subroutine PRICEL returns following result:
 
  LATTYP: Found a face centered cubic cell.
 ALAT       =     3.9980290374
  
  Lattice vectors:
  
 A1 = (   1.9990145187,  -1.9990145187,   0.0000000000)
 A2 = (   1.9990145187,   0.0000000000,   1.9990145187)
 A3 = (   0.0000000000,  -1.9990145187,   1.9990145187)
 
   4 primitive cells build up your supercell.
 

 Routine SETGRP: Setting up the symmetry group for a 
 simple cubic supercell.


 Subroutine GETGRP returns: Found 48 space group operations
 (whereof 48 operations were pure point group operations)
 out of a pool of 48 trial point group operations.


The static configuration has the point symmetry O_h .


Analysis of symmetry for dynamics (positions and initial velocities):
=====================================================================
 Subroutine PRICEL returns following result:
 
  LATTYP: Found a face centered cubic cell.
 ALAT       =     3.9980290374
  
  Lattice vectors:
  
 A1 = (   1.9990145187,  -1.9990145187,   0.0000000000)
 A2 = (   1.9990145187,   0.0000000000,   1.9990145187)
 A3 = (   0.0000000000,  -1.9990145187,   1.9990145187)
 
   4 primitive cells build up your supercell.
 

 Routine SETGRP: Setting up the symmetry group for a 
 simple cubic supercell.


 Subroutine GETGRP returns: Found 48 space group operations
 (whereof 48 operations were pure point group operations)
 out of a pool of 48 trial point group operations.


The dynamic configuration has the point symmetry O_h .


 Subroutine INISYM returns: Found 48 space group operations
 (whereof 48 operations are pure point group operations),
 and found     4 'primitive' translations


----------------------------------------------------------------------------------------

                                     Primitive cell                                     

  volume of cell :      15.9764

  direct lattice vectors                    reciprocal lattice vectors
     1.999014519 -1.999014519  0.000000000     0.250123246 -0.250123246 -0.250123246
     1.999014519  0.000000000  1.999014519     0.250123246  0.250123246  0.250123246
     0.000000000 -1.999014519  1.999014519    -0.250123246 -0.250123246  0.250123246

  length of vectors
     2.827033444  2.827033444  2.827033444     0.433226170  0.433226170  0.433226170

  position of ions in fractional coordinates (direct lattice)
     0.000000000  0.000000000  0.000000000

  ion indices of the primitive-cell ions
   primitive index   ion index
                 1           1

----------------------------------------------------------------------------------------

 
 
 KPOINTS: k-points                                

Automatic generation of k-mesh.
 Grid dimensions read from file:
 generate k-points for:   16   16   16

 Generating k-lattice:

  Cartesian coordinates                     Fractional coordinates (reciprocal lattice)
     0.015632703  0.000000000  0.000000000     0.062500000  0.000000000  0.000000000
     0.000000000  0.015632703  0.000000000     0.000000000  0.062500000  0.000000000
     0.000000000  0.000000000  0.015632703     0.000000000  0.000000000  0.062500000

  Length of vectors
     0.015632703  0.015632703  0.015632703

  Shift w.r.t. Gamma in fractional coordinates (k-lattice)
     0.000000000  0.000000000  0.000000000

 
 Subroutine IBZKPT returns following result:
 ===========================================
 
 Found    165 irreducible k-points:
 
 Following reciprocal coordinates:
            Coordinates               Weight
  0.000000  0.000000  0.000000      1.000000
  0.062500  0.000000  0.000000      6.000000
  0.125000  0.000000  0.000000      6.000000
  0.187500  0.000000  0.000000      6.000000
  0.250000  0.000000  0.000000      6.000000
  0.312500  0.000000  0.000000      6.000000
  0.375000  0.000000  0.000000      6.000000
  0.437500  0.000000  0.000000      6.000000
  0.500000  0.000000  0.000000      3.000000
  0.062500  0.062500  0.000000     12.000000
  0.125000  0.062500  0.000000     24.000000
  0.187500  0.062500  0.000000     24.000000
  0.250000  0.062500  0.000000     24.000000
  0.312500  0.062500  0.000000     24.000000
  0.375000  0.062500  0.000000     24.000000
  0.437500  0.062500  0.000000     24.000000
  0.500000  0.062500  0.000000     12.000000
  0.125000  0.125000  0.000000     12.000000
  0.187500  0.125000  0.000000     24.000000
  0.250000  0.125000  0.000000     24.000000
  0.312500  0.125000  0.000000     24.000000
  0.375000  0.125000  0.000000     24.000000
  0.437500  0.125000  0.000000     24.000000
  0.500000  0.125000  0.000000     12.000000
  0.187500  0.187500  0.000000     12.000000
  0.250000  0.187500  0.000000     24.000000
  0.312500  0.187500  0.000000     24.000000
  0.375000  0.187500  0.000000     24.000000
  0.437500  0.187500  0.000000     24.000000
  0.500000  0.187500  0.000000     12.000000
  0.250000  0.250000  0.000000     12.000000
  0.312500  0.250000  0.000000     24.000000
  0.375000  0.250000  0.000000     24.000000
  0.437500  0.250000  0.000000     24.000000
  0.500000  0.250000  0.000000     12.000000
  0.312500  0.312500  0.000000     12.000000
  0.375000  0.312500  0.000000     24.000000
  0.437500  0.312500  0.000000     24.000000
  0.500000  0.312500  0.000000     12.000000
  0.375000  0.375000  0.000000     12.000000
  0.437500  0.375000  0.000000     24.000000
  0.500000  0.375000  0.000000     12.000000
  0.437500  0.437500  0.000000     12.000000
  0.500000  0.437500  0.000000     12.000000
  0.500000  0.500000  0.000000      3.000000
  0.062500  0.062500  0.062500      8.000000
  0.125000  0.062500  0.062500     24.000000
  0.187500  0.062500  0.062500     24.000000
  0.250000  0.062500  0.062500     24.000000
  0.312500  0.062500  0.062500     24.000000
  0.375000  0.062500  0.062500     24.000000
  0.437500  0.062500  0.062500     24.000000
  0.500000  0.062500  0.062500     12.000000
  0.125000  0.125000  0.062500     24.000000
  0.187500  0.125000  0.062500     48.000000
  0.250000  0.125000  0.062500     48.000000
  0.312500  0.125000  0.062500     48.000000
  0.375000  0.125000  0.062500     48.000000
  0.437500  0.125000  0.062500     48.000000
  0.500000  0.125000  0.062500     24.000000
  0.187500  0.187500  0.062500     24.000000
  0.250000  0.187500  0.062500     48.000000
  0.312500  0.187500  0.062500     48.000000
  0.375000  0.187500  0.062500     48.000000
  0.437500  0.187500  0.062500     48.000000
  0.500000  0.187500  0.062500     24.000000
  0.250000  0.250000  0.062500     24.000000
  0.312500  0.250000  0.062500     48.000000
  0.375000  0.250000  0.062500     48.000000
  0.437500  0.250000  0.062500     48.000000
  0.500000  0.250000  0.062500     24.000000
  0.312500  0.312500  0.062500     24.000000
  0.375000  0.312500  0.062500     48.000000
  0.437500  0.312500  0.062500     48.000000
  0.500000  0.312500  0.062500     24.000000
  0.375000  0.375000  0.062500     24.000000
  0.437500  0.375000  0.062500     48.000000
  0.500000  0.375000  0.062500     24.000000
  0.437500  0.437500  0.062500     24.000000
  0.500000  0.437500  0.062500     24.000000
  0.500000  0.500000  0.062500      6.000000
  0.125000  0.125000  0.125000      8.000000
  0.187500  0.125000  0.125000     24.000000
  0.250000  0.125000  0.125000     24.000000
  0.312500  0.125000  0.125000     24.000000
  0.375000  0.125000  0.125000     24.000000
  0.437500  0.125000  0.125000     24.000000
  0.500000  0.125000  0.125000     12.000000
  0.187500  0.187500  0.125000     24.000000
  0.250000  0.187500  0.125000     48.000000
  0.312500  0.187500  0.125000     48.000000
  0.375000  0.187500  0.125000     48.000000
  0.437500  0.187500  0.125000     48.000000
  0.500000  0.187500  0.125000     24.000000
  0.250000  0.250000  0.125000     24.000000
  0.312500  0.250000  0.125000     48.000000
  0.375000  0.250000  0.125000     48.000000
  0.437500  0.250000  0.125000     48.000000
  0.500000  0.250000  0.125000     24.000000
  0.312500  0.312500  0.125000     24.000000
  0.375000  0.312500  0.125000     48.000000
  0.437500  0.312500  0.125000     48.000000
  0.500000  0.312500  0.125000     24.000000
  0.375000  0.375000  0.125000     24.000000
  0.437500  0.375000  0.125000     48.000000
  0.500000  0.375000  0.125000     24.000000
  0.437500  0.437500  0.125000     24.000000
  0.500000  0.437500  0.125000     24.000000
  0.500000  0.500000  0.125000      6.000000
  0.187500  0.187500  0.187500      8.000000
  0.250000  0.187500  0.187500     24.000000
  0.312500  0.187500  0.187500     24.000000
  0.375000  0.187500  0.187500     24.000000
  0.437500  0.187500  0.187500     24.000000
  0.500000  0.187500  0.187500     12.000000
  0.250000  0.250000  0.187500     24.000000
  0.312500  0.250000  0.187500     48.000000
  0.375000  0.250000  0.187500     48.000000
  0.437500  0.250000  0.187500     48.000000
  0.500000  0.250000  0.187500     24.000000
  0.312500  0.312500  0.187500     24.000000
  0.375000  0.312500  0.187500     48.000000
  0.437500  0.312500  0.187500     48.000000
  0.500000  0.312500  0.187500     24.000000
  0.375000  0.375000  0.187500     24.000000
  0.437500  0.375000  0.187500     48.000000
  0.500000  0.375000  0.187500     24.000000
  0.437500  0.437500  0.187500     24.000000
  0.500000  0.437500  0.187500     24.000000
  0.500000  0.500000  0.187500      6.000000
  0.250000  0.250000  0.250000      8.000000
  0.312500  0.250000  0.250000     24.000000
  0.375000  0.250000  0.250000     24.000000
  0.437500  0.250000  0.250000     24.000000
  0.500000  0.250000  0.250000     12.000000
  0.312500  0.312500  0.250000     24.000000
  0.375000  0.312500  0.250000     48.000000
  0.437500  0.312500  0.250000     48.000000
  0.500000  0.312500  0.250000     24.000000
  0.375000  0.375000  0.250000     24.000000
  0.437500  0.375000  0.250000     48.000000
  0.500000  0.375000  0.250000     24.000000
  0.437500  0.437500  0.250000     24.000000
  0.500000  0.437500  0.250000     24.000000
  0.500000  0.500000  0.250000      6.000000
  0.312500  0.312500  0.312500      8.000000
  0.375000  0.312500  0.312500     24.000000
  0.437500  0.312500  0.312500     24.000000
  0.500000  0.312500  0.312500     12.000000
  0.375000  0.375000  0.312500     24.000000
  0.437500  0.375000  0.312500     48.000000
  0.500000  0.375000  0.312500     24.000000
  0.437500  0.437500  0.312500     24.000000
  0.500000  0.437500  0.312500     24.000000
  0.500000  0.500000  0.312500      6.000000
  0.375000  0.375000  0.375000      8.000000
  0.437500  0.375000  0.375000     24.000000
  0.500000  0.375000  0.375000     12.000000
  0.437500  0.437500  0.375000     24.000000
  0.500000  0.437500  0.375000     24.000000
  0.500000  0.500000  0.375000      6.000000
  0.437500  0.437500  0.437500      8.000000
  0.500000  0.437500  0.437500     12.000000
  0.500000  0.500000  0.437500      6.000000
  0.500000  0.500000  0.500000      1.000000
 
 Following cartesian coordinates:
            Coordinates               Weight
  0.000000  0.000000  0.000000      1.000000
  0.015476  0.000000  0.000000      6.000000
  0.030953  0.000000  0.000000      6.000000
  0.046429  0.000000  0.000000      6.000000
  0.061906  0.000000  0.000000      6.000000
  0.077382  0.000000  0.000000      6.000000
  0.092858  0.000000  0.000000      6.000000
  0.108335  0.000000  0.000000      6.000000
  0.123811  0.000000  0.000000      3.000000
  0.015476  0.015476  0.000000     12.000000
  0.030953  0.015476  0.000000     24.000000
  0.046429  0.015476  0.000000     24.000000
  0.061906  0.015476  0.000000     24.000000
  0.077382  0.015476  0.000000     24.000000
  0.092858  0.015476  0.000000     24.000000
  0.108335  0.015476  0.000000     24.000000
  0.123811  0.015476  0.000000     12.000000
  0.030953  0.030953  0.000000     12.000000
  0.046429  0.030953  0.000000     24.000000
  0.061906  0.030953  0.000000     24.000000
  0.077382  0.030953  0.000000     24.000000
  0.092858  0.030953  0.000000     24.000000
  0.108335  0.030953  0.000000     24.000000
  0.123811  0.030953  0.000000     12.000000
  0.046429  0.046429  0.000000     12.000000
  0.061906  0.046429  0.000000     24.000000
  0.077382  0.046429  0.000000     24.000000
  0.092858  0.046429  0.000000     24.000000
  0.108335  0.046429  0.000000     24.000000
  0.123811  0.046429  0.000000     12.000000
  0.061906  0.061906  0.000000     12.000000
  0.077382  0.061906  0.000000     24.000000
  0.092858  0.061906  0.000000     24.000000
  0.108335  0.061906  0.000000     24.000000
  0.123811  0.061906  0.000000     12.000000
  0.077382  0.077382  0.000000     12.000000
  0.092858  0.077382  0.000000     24.000000
  0.108335  0.077382  0.000000     24.000000
  0.123811  0.077382  0.000000     12.000000
  0.092858  0.092858  0.000000     12.000000
  0.108335  0.092858  0.000000     24.000000
  0.123811  0.092858  0.000000     12.000000
  0.108335  0.108335  0.000000     12.000000
  0.123811  0.108335  0.000000     12.000000
  0.123811  0.123811  0.000000      3.000000
  0.015476  0.015476  0.015476      8.000000
  0.030953  0.015476  0.015476     24.000000
  0.046429  0.015476  0.015476     24.000000
  0.061906  0.015476  0.015476     24.000000
  0.077382  0.015476  0.015476     24.000000
  0.092858  0.015476  0.015476     24.000000
  0.108335  0.015476  0.015476     24.000000
  0.123811  0.015476  0.015476     12.000000
  0.030953  0.030953  0.015476     24.000000
  0.046429  0.030953  0.015476     48.000000
  0.061906  0.030953  0.015476     48.000000
  0.077382  0.030953  0.015476     48.000000
  0.092858  0.030953  0.015476     48.000000
  0.108335  0.030953  0.015476     48.000000
  0.123811  0.030953  0.015476     24.000000
  0.046429  0.046429  0.015476     24.000000
  0.061906  0.046429  0.015476     48.000000
  0.077382  0.046429  0.015476     48.000000
  0.092858  0.046429  0.015476     48.000000
  0.108335  0.046429  0.015476     48.000000
  0.123811  0.046429  0.015476     24.000000
  0.061906  0.061906  0.015476     24.000000
  0.077382  0.061906  0.015476     48.000000
  0.092858  0.061906  0.015476     48.000000
  0.108335  0.061906  0.015476     48.000000
  0.123811  0.061906  0.015476     24.000000
  0.077382  0.077382  0.015476     24.000000
  0.092858  0.077382  0.015476     48.000000
  0.108335  0.077382  0.015476     48.000000
  0.123811  0.077382  0.015476     24.000000
  0.092858  0.092858  0.015476     24.000000
  0.108335  0.092858  0.015476     48.000000
  0.123811  0.092858  0.015476     24.000000
  0.108335  0.108335  0.015476     24.000000
  0.123811  0.108335  0.015476     24.000000
  0.123811  0.123811  0.015476      6.000000
  0.030953  0.030953  0.030953      8.000000
  0.046429  0.030953  0.030953     24.000000
  0.061906  0.030953  0.030953     24.000000
  0.077382  0.030953  0.030953     24.000000
  0.092858  0.030953  0.030953     24.000000
  0.108335  0.030953  0.030953     24.000000
  0.123811  0.030953  0.030953     12.000000
  0.046429  0.046429  0.030953     24.000000
  0.061906  0.046429  0.030953     48.000000
  0.077382  0.046429  0.030953     48.000000
  0.092858  0.046429  0.030953     48.000000
  0.108335  0.046429  0.030953     48.000000
  0.123811  0.046429  0.030953     24.000000
  0.061906  0.061906  0.030953     24.000000
  0.077382  0.061906  0.030953     48.000000
  0.092858  0.061906  0.030953     48.000000
  0.108335  0.061906  0.030953     48.000000
  0.123811  0.061906  0.030953     24.000000
  0.077382  0.077382  0.030953     24.000000
  0.092858  0.077382  0.030953     48.000000
  0.108335  0.077382  0.030953     48.000000
  0.123811  0.077382  0.030953     24.000000
  0.092858  0.092858  0.030953     24.000000
  0.108335  0.092858  0.030953     48.000000
  0.123811  0.092858  0.030953     24.000000
  0.108335  0.108335  0.030953     24.000000
  0.123811  0.108335  0.030953     24.000000
  0.123811  0.123811  0.030953      6.000000
  0.046429  0.046429  0.046429      8.000000
  0.061906  0.046429  0.046429     24.000000
  0.077382  0.046429  0.046429     24.000000
  0.092858  0.046429  0.046429     24.000000
  0.108335  0.046429  0.046429     24.000000
  0.123811  0.046429  0.046429     12.000000
  0.061906  0.061906  0.046429     24.000000
  0.077382  0.061906  0.046429     48.000000
  0.092858  0.061906  0.046429     48.000000
  0.108335  0.061906  0.046429     48.000000
  0.123811  0.061906  0.046429     24.000000
  0.077382  0.077382  0.046429     24.000000
  0.092858  0.077382  0.046429     48.000000
  0.108335  0.077382  0.046429     48.000000
  0.123811  0.077382  0.046429     24.000000
  0.092858  0.092858  0.046429     24.000000
  0.108335  0.092858  0.046429     48.000000
  0.123811  0.092858  0.046429     24.000000
  0.108335  0.108335  0.046429     24.000000
  0.123811  0.108335  0.046429     24.000000
  0.123811  0.123811  0.046429      6.000000
  0.061906  0.061906  0.061906      8.000000
  0.077382  0.061906  0.061906     24.000000
  0.092858  0.061906  0.061906     24.000000
  0.108335  0.061906  0.061906     24.000000
  0.123811  0.061906  0.061906     12.000000
  0.077382  0.077382  0.061906     24.000000
  0.092858  0.077382  0.061906     48.000000
  0.108335  0.077382  0.061906     48.000000
  0.123811  0.077382  0.061906     24.000000
  0.092858  0.092858  0.061906     24.000000
  0.108335  0.092858  0.061906     48.000000
  0.123811  0.092858  0.061906     24.000000
  0.108335  0.108335  0.061906     24.000000
  0.123811  0.108335  0.061906     24.000000
  0.123811  0.123811  0.061906      6.000000
  0.077382  0.077382  0.077382      8.000000
  0.092858  0.077382  0.077382     24.000000
  0.108335  0.077382  0.077382     24.000000
  0.123811  0.077382  0.077382     12.000000
  0.092858  0.092858  0.077382     24.000000
  0.108335  0.092858  0.077382     48.000000
  0.123811  0.092858  0.077382     24.000000
  0.108335  0.108335  0.077382     24.000000
  0.123811  0.108335  0.077382     24.000000
  0.123811  0.123811  0.077382      6.000000
  0.092858  0.092858  0.092858      8.000000
  0.108335  0.092858  0.092858     24.000000
  0.123811  0.092858  0.092858     12.000000
  0.108335  0.108335  0.092858     24.000000
  0.123811  0.108335  0.092858     24.000000
  0.123811  0.123811  0.092858      6.000000
  0.108335  0.108335  0.108335      8.000000
  0.123811  0.108335  0.108335     12.000000
  0.123811  0.123811  0.108335      6.000000
  0.123811  0.123811  0.123811      1.000000
 


--------------------------------------------------------------------------------------------------------




 Dimension of arrays:
   k-points           NKPTS =    165   k-points in BZ     NKDIM =    165   number of bands    NBANDS=     24
   number of dos      NEDOS =    301   number of ions     NIONS =      4
   non local maximal  LDIM  =      4   non local SUM 2l+1 LMDIM =      8
   total plane-waves  NPLWV =   8000
   max r-space proj   IRMAX =      1   max aug-charges    IRDMAX=   5071
   dimension x,y,z NGX =    20 NGY =   20 NGZ =   20
   dimension x,y,z NGXF=    40 NGYF=   40 NGZF=   40
   support grid    NGXF=    40 NGYF=   40 NGZF=   40
   ions per type =               4
   NGX,Y,Z   is equivalent  to a cutoff of   8.32,  8.32,  8.32 a.u.
   NGXF,Y,Z  is equivalent  to a cutoff of  16.63, 16.63, 16.63 a.u.

 SYSTEM =  unknown system                          
 POSCAR =  Al4                                     

 Startparameter for this run:
   NWRITE =      2    write-flag & timer
   PREC   = normal    normal or accurate (medium, high low for compatibility)
   ISTART =      0    job   : 0-new  1-cont  2-samecut
   ICHARG =      2    charge: 1-file 2-atom 10-const
   ISPIN  =      1    spin polarized calculation?
   LNONCOLLINEAR =      F non collinear calculations
   LSORBIT =      F    spin-orbit coupling
   INIWAV =      1    electr: 0-lowe 1-rand  2-diag
   LASPH  =      F    aspherical Exc in radial PAW
 Electronic Relaxation 1
   ENCUT  =  400.0 eV  29.40 Ry    5.42 a.u.   6.52  6.52  6.52*2*pi/ulx,y,z
   ENINI  =  400.0     initial cutoff
   ENAUG  =  291.1 eV  augmentation charge cutoff
   NELM   =     60;   NELMIN=  2; NELMDL= -5     # of ELM steps 
   EDIFF  = 0.1E-04   stopping-criterion for ELM
   LREAL  =      F    real-space projection
   NLSPLINE    = F    spline interpolate recip. space projectors
   LCOMPAT=      F    compatible to vasp.4.4
   GGA_COMPAT  = T    GGA compatible to vasp.4.4-vasp.4.6
   LMAXPAW     = -100 max onsite density
   LMAXMIX     =    2 max onsite mixed and CHGCAR
   VOSKOWN=      0    Vosko Wilk Nusair interpolation
   ROPT   =    0.00000
 Ionic relaxation
   EDIFFG = -.1E-01   stopping-criterion for IOM
   NSW    =    100    number of steps for IOM
   NBLOCK =      1;   KBLOCK =    100    inner block; outer block 
   IBRION =      2    ionic relax: 0-MD 1-quasi-New 2-CG
   NFREE  =      1    steps in history (QN), initial steepest desc. (CG)
   ISIF   =      4    stress and relaxation
   IWAVPR =     11    prediction:  0-non 1-charg 2-wave 3-comb
   ISYM   =      2    0-nonsym 1-usesym 2-fastsym
   LCORR  =      T    Harris-Foulkes like correction to forces

   POTIM  = 0.5000    time-step for ionic-motion
   TEIN   =    0.0    initial temperature
   TEBEG  =    0.0;   TEEND  =   0.0 temperature during run
   SMASS  =  -3.00    Nose mass-parameter (am)
   estimated Nose-frequenzy (Omega)   =  0.10E-29 period in steps = 0.13E+47 mass=  -0.365E-27a.u.
   SCALEE = 1.0000    scale energy and forces
   NPACO  =    256;   APACO  = 10.0  distance and # of slots for P.C.
   PSTRESS=    0.0 pullay stress

  Mass of Ions in am
   POMASS =  26.98
  Ionic Valenz
   ZVAL   =   3.00
  Atomic Wigner-Seitz radii
   RWIGS  =  -1.00
  virtual crystal weights 
   VCA    =   1.00
   NELECT =      12.0000    total number of electrons
   NUPDOWN=      -1.0000    fix difference up-down

 DOS related values:
   EMIN   =  10.00;   EMAX   =-10.00  energy-range for DOS
   EFERMI =   0.00
   ISMEAR =     0;   SIGMA  =   0.05  broadening in eV -4-tet -1-fermi 0-gaus

 Electronic relaxation 2 (details)
   IALGO  =     38    algorithm
   LDIAG  =      T    sub-space diagonalisation (order eigenvalues)
   LSUBROT=      F    optimize rotation matrix (better conditioning)
   TURBO    =      0    0=normal 1=particle mesh
   IRESTART =      0    0=no restart 2=restart with 2 vectors
   NREBOOT  =      0    no. of reboots
   NMIN     =      0    reboot dimension
   EREF     =   0.00    reference energy to select bands
   IMIX   =      4    mixing-type and parameters
     AMIX     =   0.40;   BMIX     =  1.00
     AMIX_MAG =   1.60;   BMIX_MAG =  1.00
     AMIN     =   0.10
     WC   =   100.;   INIMIX=   1;  MIXPRE=   1;  MAXMIX= -45

 Intra band minimization:
   WEIMIN = 0.0010     energy-eigenvalue tresh-hold
   EBREAK =  0.10E-06  absolut break condition
   DEPER  =   0.30     relativ break condition  

   TIME   =   0.40     timestep for ELM

  volume/ion in A,a.u.               =      15.98       107.81
  Fermi-wavevector in a.u.,A,eV,Ry     =   0.937467  1.771556 11.957403  0.878844
  Thomas-Fermi vector in A             =   2.064581
 
 Write flags
   LWAVE        =      T    write WAVECAR
   LDOWNSAMPLE  =      F    k-point downsampling of WAVECAR
   LCHARG       =      T    write CHGCAR
   LVTOT        =      F    write LOCPOT, total local potential
   LVHAR        =      F    write LOCPOT, Hartree potential only
   LELF         =      F    write electronic localiz. function (ELF)
   LORBIT       =      0    0 simple, 1 ext, 2 COOP (PROOUT), +10 PAW based schemes


 Dipole corrections
   LMONO  =      F    monopole corrections only (constant potential shift)
   LDIPOL =      F    correct potential (dipole corrections)
   IDIPOL =      0    1-x, 2-y, 3-z, 4-all directions 
   EPSILON=  1.0000000 bulk dielectric constant

 Exchange correlation treatment:
   GGA     =    --    GGA type
   LEXCH   =     8    internal setting for exchange type
   LIBXC   =     F    Libxc                    
   VOSKOWN =     0    Vosko Wilk Nusair interpolation
   LHFCALC =     F    Hartree Fock is set to
   LHFONE  =     F    Hartree Fock one center treatment
   AEXX    =    0.0000 exact exchange contribution

 Linear response parameters
   LEPSILON=     F    determine dielectric tensor
   LRPA    =     F    only Hartree local field effects (RPA)
   LNABLA  =     F    use nabla operator in PAW spheres
   LVEL    =     F    velocity operator in full k-point grid
   CSHIFT  =0.1000    complex shift for real part using Kramers Kronig
   OMEGAMAX=  -1.0    maximum frequency
   DEG_THRESHOLD= 0.2000000E-02 threshold for treating states as degnerate
   RTIME   =   -0.100 relaxation time in fs
  (WPLASMAI=    0.000 imaginary part of plasma frequency in eV, 0.658/RTIME)
   DFIELD  = 0.0000000 0.0000000 0.0000000 field for delta impulse in time
 
  Optional k-point grid parameters
   LKPOINTS_OPT  =     F    use optional k-point grid
   KPOINTS_OPT_MODE=     1    mode for optional k-point grid
 
 Orbital magnetization related:
   ORBITALMAG=     F  switch on orbital magnetization
   LCHIMAG   =     F  perturbation theory with respect to B field
   DQ        =  0.001000  dq finite difference perturbation B field
   LLRAUG    =     F  two centre corrections for induced B field



--------------------------------------------------------------------------------------------------------


 conjugate gradient relaxation of ions
 charge density and potential will be updated during run
 non-spin polarized calculation
 Variant of blocked Davidson
 Davidson routine will perform the subspace rotation
 perform sub-space diagonalisation
    after iterative eigenvector-optimisation
 modified Broyden-mixing scheme, WC =      100.0
 initial mixing is a Kerker type mixing with AMIX =  0.4000 and BMIX =      1.0000
 Hartree-type preconditioning will be used
 using additional bands           18
 reciprocal scheme for non local part
 use partial core corrections
 calculate Harris-corrections to forces 
   (improved forces if not selfconsistent)
 use gradient corrections 
 use of overlap-Matrix (Vanderbilt PP)
 Gauss-broadening in eV      SIGMA  =   0.05


--------------------------------------------------------------------------------------------------------


  energy-cutoff  :      400.00
  volume of cell :       63.91
      direct lattice vectors                 reciprocal lattice vectors
     3.998029037  0.000000000  0.000000000     0.250123246  0.000000000  0.000000000
     0.000000000  3.998029037  0.000000000     0.000000000  0.250123246  0.000000000
     0.000000000  0.000000000  3.998029037     0.000000000  0.000000000  0.250123246

  length of vectors
     3.998029037  3.998029037  3.998029037     0.250123246  0.250123246  0.250123246


 
 k-points in units of 2pi/SCALE and weight: k-points                                
   0.00000000  0.00000000  0.00000000       0.000
   0.01547638  0.00000000  0.00000000       0.001
   0.03095275  0.00000000  0.00000000       0.001
   0.04642913  0.00000000  0.00000000       0.001
   0.06190550  0.00000000  0.00000000       0.001
   0.07738188  0.00000000  0.00000000       0.001
   0.09285826  0.00000000  0.00000000       0.001
   0.10833463  0.00000000  0.00000000       0.001
   0.12381101  0.00000000  0.00000000       0.001
   0.01547638  0.01547638  0.00000000       0.003
   0.03095275  0.01547638  0.00000000       0.006
   0.04642913  0.01547638  0.00000000       0.006
   0.06190550  0.01547638  0.00000000       0.006
   0.07738188  0.01547638  0.00000000       0.006
   0.09285826  0.01547638  0.00000000       0.006
   0.10833463  0.01547638  0.00000000       0.006
   0.12381101  0.01547638  0.00000000       0.003
   0.03095275  0.03095275  0.00000000       0.003
   0.04642913  0.03095275  0.00000000       0.006
   0.06190550  0.03095275  0.00000000       0.006
   0.07738188  0.03095275  0.00000000       0.006
   0.09285826  0.03095275  0.00000000       0.006
   0.10833463  0.03095275  0.00000000       0.006
   0.12381101  0.03095275  0.00000000       0.003
   0.04642913  0.04642913  0.00000000       0.003
   0.06190550  0.04642913  0.00000000       0.006
   0.07738188  0.04642913  0.00000000       0.006
   0.09285826  0.04642913  0.00000000       0.006
   0.10833463  0.04642913  0.00000000       0.006
   0.12381101  0.04642913  0.00000000       0.003
   0.06190550  0.06190550  0.00000000       0.003
   0.07738188  0.06190550  0.00000000       0.006
   0.09285826  0.06190550  0.00000000       0.006
   0.10833463  0.06190550  0.00000000       0.006
   0.12381101  0.06190550  0.00000000       0.003
   0.07738188  0.07738188  0.00000000       0.003
   0.09285826  0.07738188  0.00000000       0.006
   0.10833463  0.07738188  0.00000000       0.006
   0.12381101  0.07738188  0.00000000       0.003
   0.09285826  0.09285826  0.00000000       0.003
   0.10833463  0.09285826  0.00000000       0.006
   0.12381101  0.09285826  0.00000000       0.003
   0.10833463  0.10833463  0.00000000       0.003
   0.12381101  0.10833463  0.00000000       0.003
   0.12381101  0.12381101  0.00000000       0.001
   0.01547638  0.01547638  0.01547638       0.002
   0.03095275  0.01547638  0.01547638       0.006
   0.04642913  0.01547638  0.01547638       0.006
   0.06190550  0.01547638  0.01547638       0.006
   0.07738188  0.01547638  0.01547638       0.006
   0.09285826  0.01547638  0.01547638       0.006
   0.10833463  0.01547638  0.01547638       0.006
   0.12381101  0.01547638  0.01547638       0.003
   0.03095275  0.03095275  0.01547638       0.006
   0.04642913  0.03095275  0.01547638       0.012
   0.06190550  0.03095275  0.01547638       0.012
   0.07738188  0.03095275  0.01547638       0.012
   0.09285826  0.03095275  0.01547638       0.012
   0.10833463  0.03095275  0.01547638       0.012
   0.12381101  0.03095275  0.01547638       0.006
   0.04642913  0.04642913  0.01547638       0.006
   0.06190550  0.04642913  0.01547638       0.012
   0.07738188  0.04642913  0.01547638       0.012
   0.09285826  0.04642913  0.01547638       0.012
   0.10833463  0.04642913  0.01547638       0.012
   0.12381101  0.04642913  0.01547638       0.006
   0.06190550  0.06190550  0.01547638       0.006
   0.07738188  0.06190550  0.01547638       0.012
   0.09285826  0.06190550  0.01547638       0.012
   0.10833463  0.06190550  0.01547638       0.012
   0.12381101  0.06190550  0.01547638       0.006
   0.07738188  0.07738188  0.01547638       0.006
   0.09285826  0.07738188  0.01547638       0.012
   0.10833463  0.07738188  0.01547638       0.012
   0.12381101  0.07738188  0.01547638       0.006
   0.09285826  0.09285826  0.01547638       0.006
   0.10833463  0.09285826  0.01547638       0.012
   0.12381101  0.09285826  0.01547638       0.006
   0.10833463  0.10833463  0.01547638       0.006
   0.12381101  0.10833463  0.01547638       0.006
   0.12381101  0.12381101  0.01547638       0.001
   0.03095275  0.03095275  0.03095275       0.002
   0.04642913  0.03095275  0.03095275       0.006
   0.06190550  0.03095275  0.03095275       0.006
   0.07738188  0.03095275  0.03095275       0.006
   0.09285826  0.03095275  0.03095275       0.006
   0.10833463  0.03095275  0.03095275       0.006
   0.12381101  0.03095275  0.03095275       0.003
   0.04642913  0.04642913  0.03095275       0.006
   0.06190550  0.04642913  0.03095275       0.012
   0.07738188  0.04642913  0.03095275       0.012
   0.09285826  0.04642913  0.03095275       0.012
   0.10833463  0.04642913  0.03095275       0.012
   0.12381101  0.04642913  0.03095275       0.006
   0.06190550  0.06190550  0.03095275       0.006
   0.07738188  0.06190550  0.03095275       0.012
   0.09285826  0.06190550  0.03095275       0.012
   0.10833463  0.06190550  0.03095275       0.012
   0.12381101  0.06190550  0.03095275       0.006
   0.07738188  0.07738188  0.03095275       0.006
   0.09285826  0.07738188  0.03095275       0.012
   0.10833463  0.07738188  0.03095275       0.012
   0.12381101  0.07738188  0.03095275       0.006
   0.09285826  0.09285826  0.03095275       0.006
   0.10833463  0.09285826  0.03095275       0.012
   0.12381101  0.09285826  0.03095275       0.006
   0.10833463  0.10833463  0.03095275       0.006
   0.12381101  0.10833463  0.03095275       0.006
   0.12381101  0.12381101  0.03095275       0.001
   0.04642913  0.04642913  0.04642913       0.002
   0.06190550  0.04642913  0.04642913       0.006
   0.07738188  0.04642913  0.04642913       0.006
   0.09285826  0.04642913  0.04642913       0.006
   0.10833463  0.04642913  0.04642913       0.006
   0.12381101  0.04642913  0.04642913       0.003
   0.06190550  0.06190550  0.04642913       0.006
   0.07738188  0.06190550  0.04642913       0.012
   0.09285826  0.06190550  0.04642913       0.012
   0.10833463  0.06190550  0.04642913       0.012
   0.12381101  0.06190550  0.04642913       0.006
   0.07738188  0.07738188  0.04642913       0.006
   0.09285826  0.07738188  0.04642913       0.012
   0.10833463  0.07738188  0.04642913       0.012
   0.12381101  0.07738188  0.04642913       0.006
   0.09285826  0.09285826  0.04642913       0.006
   0.10833463  0.09285826  0.04642913       0.012
   0.12381101  0.09285826  0.04642913       0.006
   0.10833463  0.10833463  0.04642913       0.006
   0.12381101  0.10833463  0.04642913       0.006
   0.12381101  0.12381101  0.04642913       0.001
   0.06190550  0.06190550  0.06190550       0.002
   0.07738188  0.06190550  0.06190550       0.006
   0.09285826  0.06190550  0.06190550       0.006
   0.10833463  0.06190550  0.06190550       0.006
   0.12381101  0.06190550  0.06190550       0.003
   0.07738188  0.07738188  0.06190550       0.006
   0.09285826  0.07738188  0.06190550       0.012
   0.10833463  0.07738188  0.06190550       0.012
   0.12381101  0.07738188  0.06190550       0.006
   0.09285826  0.09285826  0.06190550       0.006
   0.10833463  0.09285826  0.06190550       0.012
   0.12381101  0.09285826  0.06190550       0.006
   0.10833463  0.10833463  0.06190550       0.006
   0.12381101  0.10833463  0.06190550       0.006
   0.12381101  0.12381101  0.06190550       0.001
   0.07738188  0.07738188  0.07738188       0.002
   0.09285826  0.07738188  0.07738188       0.006
   0.10833463  0.07738188  0.07738188       0.006
   0.12381101  0.07738188  0.07738188       0.003
   0.09285826  0.09285826  0.07738188       0.006
   0.10833463  0.09285826  0.07738188       0.012
   0.12381101  0.09285826  0.07738188       0.006
   0.10833463  0.10833463  0.07738188       0.006
   0.12381101  0.10833463  0.07738188       0.006
   0.12381101  0.12381101  0.07738188       0.001
   0.09285826  0.09285826  0.09285826       0.002
   0.10833463  0.09285826  0.09285826       0.006
   0.12381101  0.09285826  0.09285826       0.003
   0.10833463  0.10833463  0.09285826       0.006
   0.12381101  0.10833463  0.09285826       0.006
   0.12381101  0.12381101  0.09285826       0.001
   0.10833463  0.10833463  0.10833463       0.002
   0.12381101  0.10833463  0.10833463       0.003
   0.12381101  0.12381101  0.10833463       0.001
   0.12381101  0.12381101  0.12381101       0.000
 
 k-points in reciprocal lattice and weights: k-points                                
   0.00000000  0.00000000  0.00000000       0.000
   0.06250000  0.00000000  0.00000000       0.001
   0.12500000  0.00000000  0.00000000       0.001
   0.18750000  0.00000000  0.00000000       0.001
   0.25000000  0.00000000  0.00000000       0.001
   0.31250000  0.00000000  0.00000000       0.001
   0.37500000  0.00000000  0.00000000       0.001
   0.43750000  0.00000000  0.00000000       0.001
   0.50000000  0.00000000  0.00000000       0.001
   0.06250000  0.06250000  0.00000000       0.003
   0.12500000  0.06250000  0.00000000       0.006
   0.18750000  0.06250000  0.00000000       0.006
   0.25000000  0.06250000  0.00000000       0.006
   0.31250000  0.06250000  0.00000000       0.006
   0.37500000  0.06250000  0.00000000       0.006
   0.43750000  0.06250000  0.00000000       0.006
   0.50000000  0.06250000  0.00000000       0.003
   0.12500000  0.12500000  0.00000000       0.003
   0.18750000  0.12500000  0.00000000       0.006
   0.25000000  0.12500000  0.00000000       0.006
   0.31250000  0.12500000  0.00000000       0.006
   0.37500000  0.12500000  0.00000000       0.006
   0.43750000  0.12500000  0.00000000       0.006
   0.50000000  0.12500000  0.00000000       0.003
   0.18750000  0.18750000  0.00000000       0.003
   0.25000000  0.18750000  0.00000000       0.006
   0.31250000  0.18750000  0.00000000       0.006
   0.37500000  0.18750000  0.00000000       0.006
   0.43750000  0.18750000  0.00000000       0.006
   0.50000000  0.18750000  0.00000000       0.003
   0.25000000  0.25000000  0.00000000       0.003
   0.31250000  0.25000000  0.00000000       0.006
   0.37500000  0.25000000  0.00000000       0.006
   0.43750000  0.25000000  0.00000000       0.006
   0.50000000  0.25000000  0.00000000       0.003
   0.31250000  0.31250000  0.00000000       0.003
   0.37500000  0.31250000  0.00000000       0.006
   0.43750000  0.31250000  0.00000000       0.006
   0.50000000  0.31250000  0.00000000       0.003
   0.37500000  0.37500000  0.00000000       0.003
   0.43750000  0.37500000  0.00000000       0.006
   0.50000000  0.37500000  0.00000000       0.003
   0.43750000  0.43750000  0.00000000       0.003
   0.50000000  0.43750000  0.00000000       0.003
   0.50000000  0.50000000  0.00000000       0.001
   0.06250000  0.06250000  0.06250000       0.002
   0.12500000  0.06250000  0.06250000       0.006
   0.18750000  0.06250000  0.06250000       0.006
   0.25000000  0.06250000  0.06250000       0.006
   0.31250000  0.06250000  0.06250000       0.006
   0.37500000  0.06250000  0.06250000       0.006
   0.43750000  0.06250000  0.06250000       0.006
   0.50000000  0.06250000  0.06250000       0.003
   0.12500000  0.12500000  0.06250000       0.006
   0.18750000  0.12500000  0.06250000       0.012
   0.25000000  0.12500000  0.06250000       0.012
   0.31250000  0.12500000  0.06250000       0.012
   0.37500000  0.12500000  0.06250000       0.012
   0.43750000  0.12500000  0.06250000       0.012
   0.50000000  0.12500000  0.06250000       0.006
   0.18750000  0.18750000  0.06250000       0.006
   0.25000000  0.18750000  0.06250000       0.012
   0.31250000  0.18750000  0.06250000       0.012
   0.37500000  0.18750000  0.06250000       0.012
   0.43750000  0.18750000  0.06250000       0.012
   0.50000000  0.18750000  0.06250000       0.006
   0.25000000  0.25000000  0.06250000       0.006
   0.31250000  0.25000000  0.06250000       0.012
   0.37500000  0.25000000  0.06250000       0.012
   0.43750000  0.25000000  0.06250000       0.012
   0.50000000  0.25000000  0.06250000       0.006
   0.31250000  0.31250000  0.06250000       0.006
   0.37500000  0.31250000  0.06250000       0.012
   0.43750000  0.31250000  0.06250000       0.012
   0.50000000  0.31250000  0.06250000       0.006
   0.37500000  0.37500000  0.06250000       0.006
   0.43750000  0.37500000  0.06250000       0.012
   0.50000000  0.37500000  0.06250000       0.006
   0.43750000  0.43750000  0.06250000       0.006
   0.50000000  0.43750000  0.06250000       0.006
   0.50000000  0.50000000  0.06250000       0.001
   0.12500000  0.12500000  0.12500000       0.002
   0.18750000  0.12500000  0.12500000       0.006
   0.25000000  0.12500000  0.12500000       0.006
   0.31250000  0.12500000  0.12500000       0.006
   0.37500000  0.12500000  0.12500000       0.006
   0.43750000  0.12500000  0.12500000       0.006
   0.50000000  0.12500000  0.12500000       0.003
   0.18750000  0.18750000  0.12500000       0.006
   0.25000000  0.18750000  0.12500000       0.012
   0.31250000  0.18750000  0.12500000       0.012
   0.37500000  0.18750000  0.12500000       0.012
   0.43750000  0.18750000  0.12500000       0.012
   0.50000000  0.18750000  0.12500000       0.006
   0.25000000  0.25000000  0.12500000       0.006
   0.31250000  0.25000000  0.12500000       0.012
   0.37500000  0.25000000  0.12500000       0.012
   0.43750000  0.25000000  0.12500000       0.012
   0.50000000  0.25000000  0.12500000       0.006
   0.31250000  0.31250000  0.12500000       0.006
   0.37500000  0.31250000  0.12500000       0.012
   0.43750000  0.31250000  0.12500000       0.012
   0.50000000  0.31250000  0.12500000       0.006
   0.37500000  0.37500000  0.12500000       0.006
   0.43750000  0.37500000  0.12500000       0.012
   0.50000000  0.37500000  0.12500000       0.006
   0.43750000  0.43750000  0.12500000       0.006
   0.50000000  0.43750000  0.12500000       0.006
   0.50000000  0.50000000  0.12500000       0.001
   0.18750000  0.18750000  0.18750000       0.002
   0.25000000  0.18750000  0.18750000       0.006
   0.31250000  0.18750000  0.18750000       0.006
   0.37500000  0.18750000  0.18750000       0.006
   0.43750000  0.18750000  0.18750000       0.006
   0.50000000  0.18750000  0.18750000       0.003
   0.25000000  0.25000000  0.18750000       0.006
   0.31250000  0.25000000  0.18750000       0.012
   0.37500000  0.25000000  0.18750000       0.012
   0.43750000  0.25000000  0.18750000       0.012
   0.50000000  0.25000000  0.18750000       0.006
   0.31250000  0.31250000  0.18750000       0.006
   0.37500000  0.31250000  0.18750000       0.012
   0.43750000  0.31250000  0.18750000       0.012
   0.50000000  0.31250000  0.18750000       0.006
   0.37500000  0.37500000  0.18750000       0.006
   0.43750000  0.37500000  0.18750000       0.012
   0.50000000  0.37500000  0.18750000       0.006
   0.43750000  0.43750000  0.18750000       0.006
   0.50000000  0.43750000  0.18750000       0.006
   0.50000000  0.50000000  0.18750000       0.001
   0.25000000  0.25000000  0.25000000       0.002
   0.31250000  0.25000000  0.25000000       0.006
   0.37500000  0.25000000  0.25000000       0.006
   0.43750000  0.25000000  0.25000000       0.006
   0.50000000  0.25000000  0.25000000       0.003
   0.31250000  0.31250000  0.25000000       0.006
   0.37500000  0.31250000  0.25000000       0.012
   0.43750000  0.31250000  0.25000000       0.012
   0.50000000  0.31250000  0.25000000       0.006
   0.37500000  0.37500000  0.25000000       0.006
   0.43750000  0.37500000  0.25000000       0.012
   0.50000000  0.37500000  0.25000000       0.006
   0.43750000  0.43750000  0.25000000       0.006
   0.50000000  0.43750000  0.25000000       0.006
   0.50000000  0.50000000  0.25000000       0.001
   0.31250000  0.31250000  0.31250000       0.002
   0.37500000  0.31250000  0.31250000       0.006
   0.43750000  0.31250000  0.31250000       0.006
   0.50000000  0.31250000  0.31250000       0.003
   0.37500000  0.37500000  0.31250000       0.006
   0.43750000  0.37500000  0.31250000       0.012
   0.50000000  0.37500000  0.31250000       0.006
   0.43750000  0.43750000  0.31250000       0.006
   0.50000000  0.43750000  0.31250000       0.006
   0.50000000  0.50000000  0.31250000       0.001
   0.37500000  0.37500000  0.37500000       0.002
   0.43750000  0.37500000  0.37500000       0.006
   0.50000000  0.37500000  0.37500000       0.003
   0.43750000  0.43750000  0.37500000       0.006
   0.50000000  0.43750000  0.37500000       0.006
   0.50000000  0.50000000  0.37500000       0.001
   0.43750000  0.43750000  0.43750000       0.002
   0.50000000  0.43750000  0.43750000       0.003
   0.50000000  0.50000000  0.43750000       0.001
   0.50000000  0.50000000  0.50000000       0.000
 
 position of ions in fractional coordinates (direct lattice) 
   0.00000000  0.00000000  0.00000000
   0.00000000  0.50000000  0.50000000
   0.50000000  0.00000000  0.50000000
   0.50000000  0.50000000  0.00000000
 
 position of ions in cartesian coordinates  (Angst):
   0.00000000  0.00000000  0.00000000
   0.00000000  1.99901452  1.99901452
   1.99901452  0.00000000  1.99901452
   1.99901452  1.99901452  0.00000000
 


--------------------------------------------------------------------------------------------------------


 k-point   1 :   0.0000 0.0000 0.0000  plane waves:    1189
 k-point   2 :   0.0625 0.0000 0.0000  plane waves:    1185
 k-point   3 :   0.1250 0.0000 0.0000  plane waves:    1177
 k-point   4 :   0.1875 0.0000 0.0000  plane waves:    1165
 k-point   5 :   0.2500 0.0000 0.0000  plane waves:    1153
 k-point   6 :   0.3125 0.0000 0.0000  plane waves:    1169
 k-point   7 :   0.3750 0.0000 0.0000  plane waves:    1165
 k-point   8 :   0.4375 0.0000 0.0000  plane waves:    1165
 k-point   9 :   0.5000 0.0000 0.0000  plane waves:    1166
 k-point  10 :   0.0625 0.0625 0.0000  plane waves:    1179
 k-point  11 :   0.1250 0.0625 0.0000  plane waves:    1173
 k-point  12 :   0.1875 0.0625 0.0000  plane waves:    1161
 k-point  13 :   0.2500 0.0625 0.0000  plane waves:    1166
 k-point  14 :   0.3125 0.0625 0.0000  plane waves:    1178
 k-point  15 :   0.3750 0.0625 0.0000  plane waves:    1172
 k-point  16 :   0.4375 0.0625 0.0000  plane waves:    1166
 k-point  17 :   0.5000 0.0625 0.0000  plane waves:    1164
 k-point  18 :   0.1250 0.1250 0.0000  plane waves:    1163
 k-point  19 :   0.1875 0.1250 0.0000  plane waves:    1162
 k-point  20 :   0.2500 0.1250 0.0000  plane waves:    1163
 k-point  21 :   0.3125 0.1250 0.0000  plane waves:    1170
 k-point  22 :   0.3750 0.1250 0.0000  plane waves:    1175
 k-point  23 :   0.4375 0.1250 0.0000  plane waves:    1168
 k-point  24 :   0.5000 0.1250 0.0000  plane waves:    1160
 k-point  25 :   0.1875 0.1875 0.0000  plane waves:    1159
 k-point  26 :   0.2500 0.1875 0.0000  plane waves:    1167
 k-point  27 :   0.3125 0.1875 0.0000  plane waves:    1163
 k-point  28 :   0.3750 0.1875 0.0000  plane waves:    1160
 k-point  29 :   0.4375 0.1875 0.0000  plane waves:    1160
 k-point  30 :   0.5000 0.1875 0.0000  plane waves:    1156
 k-point  31 :   0.2500 0.2500 0.0000  plane waves:    1165
 k-point  32 :   0.3125 0.2500 0.0000  plane waves:    1162
 k-point  33 :   0.3750 0.2500 0.0000  plane waves:    1160
 k-point  34 :   0.4375 0.2500 0.0000  plane waves:    1161
 k-point  35 :   0.5000 0.2500 0.0000  plane waves:    1164
 k-point  36 :   0.3125 0.3125 0.0000  plane waves:    1155
 k-point  37 :   0.3750 0.3125 0.0000  plane waves:    1160
 k-point  38 :   0.4375 0.3125 0.0000  plane waves:    1155
 k-point  39 :   0.5000 0.3125 0.0000  plane waves:    1154
 k-point  40 :   0.3750 0.3750 0.0000  plane waves:    1155
 k-point  41 :   0.4375 0.3750 0.0000  plane waves:    1156
 k-point  42 :   0.5000 0.3750 0.0000  plane waves:    1152
 k-point  43 :   0.4375 0.4375 0.0000  plane waves:    1154
 k-point  44 :   0.5000 0.4375 0.0000  plane waves:    1156
 k-point  45 :   0.5000 0.5000 0.0000  plane waves:    1180
 k-point  46 :   0.0625 0.0625 0.0625  plane waves:    1186
 k-point  47 :   0.1250 0.0625 0.0625  plane waves:    1168
 k-point  48 :   0.1875 0.0625 0.0625  plane waves:    1166
 k-point  49 :   0.2500 0.0625 0.0625  plane waves:    1160
 k-point  50 :   0.3125 0.0625 0.0625  plane waves:    1168
 k-point  51 :   0.3750 0.0625 0.0625  plane waves:    1169
 k-point  52 :   0.4375 0.0625 0.0625  plane waves:    1165
 k-point  53 :   0.5000 0.0625 0.0625  plane waves:    1162
 k-point  54 :   0.1250 0.1250 0.0625  plane waves:    1164
 k-point  55 :   0.1875 0.1250 0.0625  plane waves:    1164
 k-point  56 :   0.2500 0.1250 0.0625  plane waves:    1164
 k-point  57 :   0.3125 0.1250 0.0625  plane waves:    1169
 k-point  58 :   0.3750 0.1250 0.0625  plane waves:    1167
 k-point  59 :   0.4375 0.1250 0.0625  plane waves:    1165
 k-point  60 :   0.5000 0.1250 0.0625  plane waves:    1162
 k-point  61 :   0.1875 0.1875 0.0625  plane waves:    1164
 k-point  62 :   0.2500 0.1875 0.0625  plane waves:    1170
 k-point  63 :   0.3125 0.1875 0.0625  plane waves:    1161
 k-point  64 :   0.3750 0.1875 0.0625  plane waves:    1163
 k-point  65 :   0.4375 0.1875 0.0625  plane waves:    1161
 k-point  66 :   0.5000 0.1875 0.0625  plane waves:    1162
 k-point  67 :   0.2500 0.2500 0.0625  plane waves:    1172
 k-point  68 :   0.3125 0.2500 0.0625  plane waves:    1160
 k-point  69 :   0.3750 0.2500 0.0625  plane waves:    1157
 k-point  70 :   0.4375 0.2500 0.0625  plane waves:    1156
 k-point  71 :   0.5000 0.2500 0.0625  plane waves:    1156
 k-point  72 :   0.3125 0.3125 0.0625  plane waves:    1159
 k-point  73 :   0.3750 0.3125 0.0625  plane waves:    1162
 k-point  74 :   0.4375 0.3125 0.0625  plane waves:    1154
 k-point  75 :   0.5000 0.3125 0.0625  plane waves:    1158
 k-point  76 :   0.3750 0.3750 0.0625  plane waves:    1151
 k-point  77 :   0.4375 0.3750 0.0625  plane waves:    1158
 k-point  78 :   0.5000 0.3750 0.0625  plane waves:    1156
 k-point  79 :   0.4375 0.4375 0.0625  plane waves:    1154
 k-point  80 :   0.5000 0.4375 0.0625  plane waves:    1156
 k-point  81 :   0.5000 0.5000 0.0625  plane waves:    1164
 k-point  82 :   0.1250 0.1250 0.1250  plane waves:    1168
 k-point  83 :   0.1875 0.1250 0.1250  plane waves:    1168
 k-point  84 :   0.2500 0.1250 0.1250  plane waves:    1160
 k-point  85 :   0.3125 0.1250 0.1250  plane waves:    1170
 k-point  86 :   0.3750 0.1250 0.1250  plane waves:    1163
 k-point  87 :   0.4375 0.1250 0.1250  plane waves:    1162
 k-point  88 :   0.5000 0.1250 0.1250  plane waves:    1164
 k-point  89 :   0.1875 0.1875 0.1250  plane waves:    1170
 k-point  90 :   0.2500 0.1875 0.1250  plane waves:    1171
 k-point  91 :   0.3125 0.1875 0.1250  plane waves:    1164
 k-point  92 :   0.3750 0.1875 0.1250  plane waves:    1162
 k-point  93 :   0.4375 0.1875 0.1250  plane waves:    1161
 k-point  94 :   0.5000 0.1875 0.1250  plane waves:    1158
 k-point  95 :   0.2500 0.2500 0.1250  plane waves:    1160
 k-point  96 :   0.3125 0.2500 0.1250  plane waves:    1166
 k-point  97 :   0.3750 0.2500 0.1250  plane waves:    1164
 k-point  98 :   0.4375 0.2500 0.1250  plane waves:    1158
 k-point  99 :   0.5000 0.2500 0.1250  plane waves:    1154
 k-point 100 :   0.3125 0.3125 0.1250  plane waves:    1159
 k-point 101 :   0.3750 0.3125 0.1250  plane waves:    1167
 k-point 102 :   0.4375 0.3125 0.1250  plane waves:    1158
 k-point 103 :   0.5000 0.3125 0.1250  plane waves:    1160
 k-point 104 :   0.3750 0.3750 0.1250  plane waves:    1156
 k-point 105 :   0.4375 0.3750 0.1250  plane waves:    1161
 k-point 106 :   0.5000 0.3750 0.1250  plane waves:    1162
 k-point 107 :   0.4375 0.4375 0.1250  plane waves:    1159
 k-point 108 :   0.5000 0.4375 0.1250  plane waves:    1156
 k-point 109 :   0.5000 0.5000 0.1250  plane waves:    1156
 k-point 110 :   0.1875 0.1875 0.1875  plane waves:    1177
 k-point 111 :   0.2500 0.1875 0.1875  plane waves:    1169
 k-point 112 :   0.3125 0.1875 0.1875  plane waves:    1167
 k-point 113 :   0.3750 0.1875 0.1875  plane waves:    1166
 k-point 114 :   0.4375 0.1875 0.1875  plane waves:    1159
 k-point 115 :   0.5000 0.1875 0.1875  plane waves:    1156
 k-point 116 :   0.2500 0.2500 0.1875  plane waves:    1164
 k-point 117 :   0.3125 0.2500 0.1875  plane waves:    1159
 k-point 118 :   0.3750 0.2500 0.1875  plane waves:    1166
 k-point 119 :   0.4375 0.2500 0.1875  plane waves:    1156
 k-point 120 :   0.5000 0.2500 0.1875  plane waves:    1156
 k-point 121 :   0.3125 0.3125 0.1875  plane waves:    1165
 k-point 122 :   0.3750 0.3125 0.1875  plane waves:    1158
 k-point 123 :   0.4375 0.3125 0.1875  plane waves:    1155
 k-point 124 :   0.5000 0.3125 0.1875  plane waves:    1158
 k-point 125 :   0.3750 0.3750 0.1875  plane waves:    1164
 k-point 126 :   0.4375 0.3750 0.1875  plane waves:    1164
 k-point 127 :   0.5000 0.3750 0.1875  plane waves:    1158
 k-point 128 :   0.4375 0.4375 0.1875  plane waves:    1161
 k-point 129 :   0.5000 0.4375 0.1875  plane waves:    1162
 k-point 130 :   0.5000 0.5000 0.1875  plane waves:    1144
 k-point 131 :   0.2500 0.2500 0.2500  plane waves:    1166
 k-point 132 :   0.3125 0.2500 0.2500  plane waves:    1166
 k-point 133 :   0.3750 0.2500 0.2500  plane waves:    1160
 k-point 134 :   0.4375 0.2500 0.2500  plane waves:    1160
 k-point 135 :   0.5000 0.2500 0.2500  plane waves:    1160
 k-point 136 :   0.3125 0.3125 0.2500  plane waves:    1158
 k-point 137 :   0.3750 0.3125 0.2500  plane waves:    1157
 k-point 138 :   0.4375 0.3125 0.2500  plane waves:    1167
 k-point 139 :   0.5000 0.3125 0.2500  plane waves:    1158
 k-point 140 :   0.3750 0.3750 0.2500  plane waves:    1157
 k-point 141 :   0.4375 0.3750 0.2500  plane waves:    1160
 k-point 142 :   0.5000 0.3750 0.2500  plane waves:    1162
 k-point 143 :   0.4375 0.4375 0.2500  plane waves:    1157
 k-point 144 :   0.5000 0.4375 0.2500  plane waves:    1158
 k-point 145 :   0.5000 0.5000 0.2500  plane waves:    1140
 k-point 146 :   0.3125 0.3125 0.3125  plane waves:    1160
 k-point 147 :   0.3750 0.3125 0.3125  plane waves:    1159
 k-point 148 :   0.4375 0.3125 0.3125  plane waves:    1163
 k-point 149 :   0.5000 0.3125 0.3125  plane waves:    1158
 k-point 150 :   0.3750 0.3750 0.3125  plane waves:    1153
 k-point 151 :   0.4375 0.3750 0.3125  plane waves:    1153
 k-point 152 :   0.5000 0.3750 0.3125  plane waves:    1156
 k-point 153 :   0.4375 0.4375 0.3125  plane waves:    1153
 k-point 154 :   0.5000 0.4375 0.3125  plane waves:    1142
 k-point 155 :   0.5000 0.5000 0.3125  plane waves:    1140
 k-point 156 :   0.3750 0.3750 0.3750  plane waves:    1148
 k-point 157 :   0.4375 0.3750 0.3750  plane waves:    1143
 k-point 158 :   0.5000 0.3750 0.3750  plane waves:    1138
 k-point 159 :   0.4375 0.4375 0.3750  plane waves:    1138
 k-point 160 :   0.5000 0.4375 0.3750  plane waves:    1138
 k-point 161 :   0.5000 0.5000 0.3750  plane waves:    1132
 k-point 162 :   0.4375 0.4375 0.4375  plane waves:    1133
 k-point 163 :   0.5000 0.4375 0.4375  plane waves:    1136
 k-point 164 :   0.5000 0.5000 0.4375  plane waves:    1128
 k-point 165 :   0.5000 0.5000 0.5000  plane waves:    1088

 maximum and minimum number of plane-waves per node :      1189     1088

 maximum number of plane-waves:      1189
 maximum index in each direction: 
   IXMAX=    6   IYMAX=    6   IZMAX=    6
   IXMIN=   -7   IYMIN=   -7   IZMIN=   -6


 serial   3D FFT for wavefunctions
 parallel 3D FFT for charge:
    minimum data exchange during FFTs selected (reduces bandwidth)


 total amount of memory used by VASP MPI-rank0    46686. kBytes
=======================================================================

   base      :      30000. kBytes
   nonl-proj :      12748. kBytes
   fftplans  :        147. kBytes
   grid      :        485. kBytes
   one-center:         12. kBytes
   wavefun   :       3294. kBytes
 
     INWAV:  cpu time      0.0000: real time      0.0001
 Broyden mixing: mesh for mixing (old mesh)
   NGX = 13   NGY = 13   NGZ = 13
  (NGX  = 40   NGY  = 40   NGZ  = 40)
  gives a total of   2197 points

 initial charge density was supplied:
 charge density of overlapping atoms calculated
 number of electron      12.0000000 magnetization 
 keeping initial charge density in first step


--------------------------------------------------------------------------------------------------------


 Maximum index for augmentation-charges          341 (set IRDMAX)


--------------------------------------------------------------------------------------------------------


 First call to EWALD:  gamma=   0.443
 Maximum number of real-space cells 3x 3x 3
 Maximum number of reciprocal cells 3x 3x 3

    FEWALD:  cpu time      0.0012: real time      0.0012


--------------------------------------- Iteration      1(   1)  ---------------------------------------


    POTLOK:  cpu time      0.0028: real time      0.0093
    SETDIJ:  cpu time      0.0050: real time      0.0079
     EDDAV:  cpu time      0.6110: real time      0.6475
       DOS:  cpu time      0.0008: real time      0.0022
    --------------------------------------------
      LOOP:  cpu time      0.6195: real time      0.6669

 eigenvalue-minimisations  :  7920
 total energy-change (2. order) :-0.7929126E+01  (-0.3910511E+03)
 number of electron      12.0000000 magnetization 
 augmentation part       12.0000000 magnetization 

 Free energy of the ion-electron system (eV)
  ---------------------------------------------------
  alpha Z        PSCENC =        -0.84094497
  Ewald energy   TEWEN  =      -297.24113720
  -Hartree energ DENC   =        -0.36167052
  -exchange      EXHF   =         0.00000000
  -V(xc)+E(xc)   XCENC  =      -104.72539367
  PAW double counting   =       264.80062850     -136.98248303
  entropy T*S    EENTRO =        -0.00101350
  eigenvalues    EBANDS =        53.27027123
  atomic energy  EATOM  =       214.15261729
  Solvation  Ediel_sol  =         0.00000000
  ---------------------------------------------------
  free energy    TOTEN  =        -7.92912586 eV

  energy without entropy =       -7.92811236  energy(sigma->0) =       -7.92861911


--------------------------------------------------------------------------------------------------------




--------------------------------------- Iteration      1(   2)  ---------------------------------------


     EDDAV:  cpu time      1.0274: real time      1.0357
       DOS:  cpu time      0.0007: real time      0.0007
    --------------------------------------------
      LOOP:  cpu time      1.0281: real time      1.0364

 eigenvalue-minimisations  : 11592
 total energy-change (2. order) :-0.7106498E+01  (-0.7033979E+01)
 number of electron      12.0000000 magnetization 
 augmentation part       12.0000000 magnetization 

 Free energy of the ion-electron system (eV)
  ---------------------------------------------------
  alpha Z        PSCENC =        -0.84094497
  Ewald energy   TEWEN  =      -297.24113720
  -Hartree energ DENC   =        -0.36167052
  -exchange      EXHF   =         0.00000000
  -V(xc)+E(xc)   XCENC  =      -104.72539367
  PAW double counting   =       264.80062850     -136.98248303
  entropy T*S    EENTRO =        -0.00126001
  eigenvalues    EBANDS =        46.16401937
  atomic energy  EATOM  =       214.15261729
  Solvation  Ediel_sol  =         0.00000000
  ---------------------------------------------------
  free energy    TOTEN  =       -15.03562424 eV

  energy without entropy =      -15.03436423  energy(sigma->0) =      -15.03499423


--------------------------------------------------------------------------------------------------------




--------------------------------------- Iteration      1(   3)  ---------------------------------------


     EDDAV:  cpu time      0.9724: real time      0.9792
       DOS:  cpu time      0.0007: real time      0.0007
    --------------------------------------------
      LOOP:  cpu time      0.9731: real time      0.9799

 eigenvalue-minimisations  : 10920
 total energy-change (2. order) :-0.2939486E-01  (-0.2939207E-01)
 number of electron      12.0000000 magnetization 
 augmentation part       12.0000000 magnetization 

 Free energy of the ion-electron system (eV)
  ---------------------------------------------------
  alpha Z        PSCENC =        -0.84094497
  Ewald energy   TEWEN  =      -297.24113720
  -Hartree energ DENC   =        -0.36167052
  -exchange      EXHF   =         0.00000000
  -V(xc)+E(xc)   XCENC  =      -104.72539367
  PAW double counting   =       264.80062850     -136.98248303
  entropy T*S    EENTRO =        -0.00130581
  eigenvalues    EBANDS =        46.13467031
  atomic energy  EATOM  =       214.15261729
  Solvation  Ediel_sol  =         0.00000000
  ---------------------------------------------------
  free energy    TOTEN  =       -15.06501910 eV

  energy without entropy =      -15.06371329  energy(sigma->0) =      -15.06436619


--------------------------------------------------------------------------------------------------------




--------------------------------------- Iteration      1(   4)  ---------------------------------------


     EDDAV:  cpu time      1.3804: real time      1.3902
       DOS:  cpu time      0.0006: real time      0.0006
    --------------------------------------------
      LOOP:  cpu time      1.3811: real time      1.3908

 eigenvalue-minimisations  : 13704
 total energy-change (2. order) :-0.3985512E-04  (-0.3985481E-04)
 number of electron      12.0000000 magnetization 
 augmentation part       12.0000000 magnetization 

 Free energy of the ion-electron system (eV)
  ---------------------------------------------------
  alpha Z        PSCENC =        -0.84094497
  Ewald energy   TEWEN  =      -297.24113720
  -Hartree energ DENC   =        -0.36167052
  -exchange      EXHF   =         0.00000000
  -V(xc)+E(xc)   XCENC  =      -104.72539367
  PAW double counting   =       264.80062850     -136.98248303
  entropy T*S    EENTRO =        -0.00130597
  eigenvalues    EBANDS =        46.13463062
  atomic energy  EATOM  =       214.15261729
  Solvation  Ediel_sol  =         0.00000000
  ---------------------------------------------------
  free energy    TOTEN  =       -15.06505895 eV

  energy without entropy =      -15.06375298  energy(sigma->0) =      -15.06440597


--------------------------------------------------------------------------------------------------------




--------------------------------------- Iteration      1(   5)  ---------------------------------------


     EDDAV:  cpu time      0.9644: real time      0.9711
       DOS:  cpu time      0.0007: real time      0.0007
    CHARGE:  cpu time      0.0141: real time      0.0142
    MIXING:  cpu time      0.0002: real time      0.0002
    --------------------------------------------
      LOOP:  cpu time      0.9794: real time      0.9862

 eigenvalue-minimisations  : 10704
 total energy-change (2. order) :-0.4988237E-08  (-0.5295578E-08)
 number of electron      11.9999999 magnetization 
 augmentation part       -0.1453213 magnetization 

 Broyden mixing:
  rms(total) = 0.27239E+00    rms(broyden)= 0.27239E+00
  rms(prec ) = 0.48084E+00
  weight for this iteration     100.00

 Free energy of the ion-electron system (eV)
  ---------------------------------------------------
  alpha Z        PSCENC =        -0.84094497
  Ewald energy   TEWEN  =      -297.24113720
  -Hartree energ DENC   =        -0.36167052
  -exchange      EXHF   =         0.00000000
  -V(xc)+E(xc)   XCENC  =      -104.72539367
  PAW double counting   =       264.80062850     -136.98248303
  entropy T*S    EENTRO =        -0.00130597
  eigenvalues    EBANDS =        46.13463061
  atomic energy  EATOM  =       214.15261729
  Solvation  Ediel_sol  =         0.00000000
  ---------------------------------------------------
  free energy    TOTEN  =       -15.06505896 eV

  energy without entropy =      -15.06375299  energy(sigma->0) =      -15.06440597


--------------------------------------------------------------------------------------------------------




--------------------------------------- Iteration      1(   6)  ---------------------------------------


    POTLOK:  cpu time      0.0020: real time      0.0022
    SETDIJ:  cpu time      0.0009: real time      0.0009
     EDDAV:  cpu time      1.1211: real time      1.1283
       DOS:  cpu time      0.0006: real time      0.0006
    CHARGE:  cpu time      0.0130: real time      0.0130
    MIXING:  cpu time      0.0002: real time      0.0002
    --------------------------------------------
      LOOP:  cpu time      1.1379: real time      1.1453

 eigenvalue-minimisations  : 11784
 total energy-change (2. order) : 0.5330455E-01  (-0.5923175E-03)
 number of electron      11.9999999 magnetization 
 augmentation part       -0.1473420 magnetization 

 Broyden mixing:
  rms(total) = 0.15842E+00    rms(broyden)= 0.15842E+00
  rms(prec ) = 0.29441E+00
  weight for this iteration     100.00

 eigenvalues of (default mixing * dielectric matrix)
  average eigenvalue GAMMA=   2.3406
  2.3406

 Free energy of the ion-electron system (eV)
  ---------------------------------------------------
  alpha Z        PSCENC =        -0.84094497
  Ewald energy   TEWEN  =      -297.24113720
  -Hartree energ DENC   =        -0.32133324
  -exchange      EXHF   =         0.00000000
  -V(xc)+E(xc)   XCENC  =      -104.57464893
  PAW double counting   =       390.69100235     -262.89416545
  entropy T*S    EENTRO =        -0.00130810
  eigenvalues    EBANDS =        46.01816383
  atomic energy  EATOM  =       214.15261729
  Solvation  Ediel_sol  =         0.00000000
  ---------------------------------------------------
  free energy    TOTEN  =       -15.01175441 eV

  energy without entropy =      -15.01044631  energy(sigma->0) =      -15.01110036


--------------------------------------------------------------------------------------------------------




--------------------------------------- Iteration      1(   7)  ---------------------------------------


    POTLOK:  cpu time      0.0019: real time      0.0021
    SETDIJ:  cpu time      0.0009: real time      0.0009
     EDDAV:  cpu time      0.9001: real time      0.9061
       DOS:  cpu time      0.0006: real time      0.0006
    CHARGE:  cpu time      0.0130: real time      0.0130
    MIXING:  cpu time      0.0002: real time      0.0002
    --------------------------------------------
      LOOP:  cpu time      0.9166: real time      0.9229

 eigenvalue-minimisations  : 10368
 total energy-change (2. order) : 0.3897213E-01  (-0.1711137E-02)
 number of electron      11.9999999 magnetization 
 augmentation part       -0.1512462 magnetization 

 Broyden mixing:
  rms(total) = 0.27553E-01    rms(broyden)= 0.27553E-01
  rms(prec ) = 0.29923E-01
  weight for this iteration     100.00

 eigenvalues of (default mixing * dielectric matrix)
  average eigenvalue GAMMA=   2.9074
  2.9074  2.9074

 Free energy of the ion-electron system (eV)
  ---------------------------------------------------
  alpha Z        PSCENC =        -0.84094497
  Ewald energy   TEWEN  =      -297.24113720
  -Hartree energ DENC   =        -0.42431146
  -exchange      EXHF   =         0.00000000
  -V(xc)+E(xc)   XCENC  =      -104.28287888
  PAW double counting   =       646.93006853     -519.17372181
  entropy T*S    EENTRO =        -0.00133323
  eigenvalues    EBANDS =        45.90885946
  atomic energy  EATOM  =       214.15261729
  Solvation  Ediel_sol  =         0.00000000
  ---------------------------------------------------
  free energy    TOTEN  =       -14.97278228 eV

  energy without entropy =      -14.97144905  energy(sigma->0) =      -14.97211566


--------------------------------------------------------------------------------------------------------




--------------------------------------- Iteration      1(   8)  ---------------------------------------


    POTLOK:  cpu time      0.0019: real time      0.0021
    SETDIJ:  cpu time      0.0009: real time      0.0009
     EDDAV:  cpu time      1.4502: real time      1.4597
       DOS:  cpu time      0.0006: real time      0.0006
    CHARGE:  cpu time      0.0134: real time      0.0134
    MIXING:  cpu time      0.0002: real time      0.0002
    --------------------------------------------
      LOOP:  cpu time      1.4672: real time      1.4770

 eigenvalue-minimisations  : 14040
 total energy-change (2. order) : 0.1169346E-03  (-0.7925798E-05)
 number of electron      11.9999999 magnetization 
 augmentation part       -0.1515863 magnetization 

 Broyden mixing:
  rms(total) = 0.47535E-02    rms(broyden)= 0.47535E-02
  rms(prec ) = 0.58376E-02
  weight for this iteration     100.00

 eigenvalues of (default mixing * dielectric matrix)
  average eigenvalue GAMMA=   2.1129
  1.0448  2.5799  2.7141

 Free energy of the ion-electron system (eV)
  ---------------------------------------------------
  alpha Z        PSCENC =        -0.84094497
  Ewald energy   TEWEN  =      -297.24113720
  -Hartree energ DENC   =        -0.43979366
  -exchange      EXHF   =         0.00000000
  -V(xc)+E(xc)   XCENC  =      -104.26290183
  PAW double counting   =       588.60226330     -460.85641511
  entropy T*S    EENTRO =        -0.00133624
  eigenvalues    EBANDS =        45.91498307
  atomic energy  EATOM  =       214.15261729
  Solvation  Ediel_sol  =         0.00000000
  ---------------------------------------------------
  free energy    TOTEN  =       -14.97266534 eV

  energy without entropy =      -14.97132911  energy(sigma->0) =      -14.97199722


--------------------------------------------------------------------------------------------------------




--------------------------------------- Iteration      1(   9)  ---------------------------------------


    POTLOK:  cpu time      0.0020: real time      0.0022
    SETDIJ:  cpu time      0.0009: real time      0.0009
     EDDAV:  cpu time      0.9377: real time      0.9439
       DOS:  cpu time      0.0006: real time      0.0006
    --------------------------------------------
      LOOP:  cpu time      0.9413: real time      0.9476

 eigenvalue-minimisations  : 10320
 total energy-change (2. order) : 0.8573830E-05  (-0.3531019E-06)
 number of electron      11.9999999 magnetization 
 augmentation part       -0.1515863 magnetization 

 Free energy of the ion-electron system (eV)
  ---------------------------------------------------
  alpha Z        PSCENC =        -0.84094497
  Ewald energy   TEWEN  =      -297.24113720
  -Hartree energ DENC   =        -0.44204951
  -exchange      EXHF   =         0.00000000
  -V(xc)+E(xc)   XCENC  =      -104.25918714
  PAW double counting   =       597.43985255     -469.69365548
  entropy T*S    EENTRO =        -0.00133664
  eigenvalues    EBANDS =        45.91318434
  atomic energy  EATOM  =       214.15261729
  Solvation  Ediel_sol  =         0.00000000
  ---------------------------------------------------
  free energy    TOTEN  =       -14.97265677 eV

  energy without entropy =      -14.97132013  energy(sigma->0) =      -14.97198845


--------------------------------------------------------------------------------------------------------




 average (electrostatic) potential at core
  the test charge radii are     1.0406
  (the norm of the test charge is              1.0000)
       1 -72.2417       2 -72.2417       3 -72.2417       4 -72.2417
 
 
 
 E-fermi :   8.3427     XC(G=0): -10.3137     alpha+bet :-15.3639

 Fermi energy:         8.3426557659

 k-point     1 :       0.0000    0.0000    0.0000
  band No.  band energies     occupation 
      1      -3.0180      2.00000
      2       5.3393      2.00000
      3       5.3393      2.00000
      4       5.3393      2.00000
      5       6.7331      2.00000
      6       6.7331      2.00000
      7       6.7331      2.00000
      8      13.6069      0.00000
      9      13.6069      0.00000
     10      13.6069      0.00000
     11      14.0888      0.00000
     12      14.0888      0.00000
     13      14.0888      0.00000
     14      14.0888      0.00000
     15      14.0888      0.00000
     16      14.0888      0.00000
     17      17.7207      0.00000
     18      17.7207      0.00000
     19      17.7207      0.00000
     20      21.1459      0.00000
     21      21.1459      0.00000
     22      21.1459      0.00000
     23      22.8805      0.00000
     24      22.8805      0.00000

 k-point     2 :       0.0625    0.0000    0.0000
  band No.  band energies     occupation 
[...]
      5       4.7849      2.00000
      6       4.7849      2.00000
      7       6.9503      2.00000
      8       6.9503      2.00000
      9      15.5782      0.00000
     10      15.5782      0.00000
     11      16.6524      0.00000
     12      16.6524      0.00000
     13      17.4546      0.00000
     14      17.4546      0.00000
     15      18.6104      0.00000
     16      18.6104      0.00000
     17      20.0107      0.00000
     18      20.0107      0.00000
     19      21.0562      0.00000
     20      21.0562      0.00000
     21      21.9183      0.00000
     22      21.9183      0.00000
     23      22.6310      0.00000
     24      22.6310      0.00000

 k-point   153 :       0.4375    0.4375    0.3125
  band No.  band energies     occupation 
      1       1.3610      2.00000
      2       2.4761      2.00000
      3       2.4761      2.00000
      4       3.5711      2.00000
      5       4.7162      2.00000
      6       5.7969      2.00000
      7       5.7969      2.00000
      8       6.8835      2.00000
      9      15.5514      0.00000
     10      16.5015      0.00000
     11      16.5015      0.00000
     12      17.4825      0.00000
     13      17.5808      0.00000
     14      17.5808      0.00000
     15      17.8859      0.00000
     16      19.7359      0.00000
     17      19.8673      0.00000
     18      20.8476      0.00000
     19      20.8476      0.00000
     20      20.8607      0.00000
     21      21.4361      0.00000
     22      21.9018      0.00000
     23      21.9018      0.00000
     24      22.8578      0.00000

 k-point   154 :       0.5000    0.4375    0.3125
  band No.  band energies     occupation 
      1       1.8852      2.00000
      2       1.8852      2.00000
      3       2.9938      2.00000
      4       2.9938      2.00000
      5       5.2196      2.00000
      6       5.2196      2.00000
      7       6.3068      2.00000
      8       6.3068      2.00000
      9      16.0130      0.00000
     10      16.0130      0.00000
     11      16.9788      0.00000
     12      16.9788      0.00000
     13      17.9050      0.00000
     14      17.9050      0.00000
     15      18.8929      0.00000
     16      18.8929      0.00000
     17      20.6114      0.00000
     18      20.6114      0.00000
     19      21.0206      0.00000
     20      21.0206      0.00000
     21      21.4803      0.00000
     22      21.4803      0.00000
     23      22.0253      0.00000
     24      22.0253      0.00000

 k-point   155 :       0.5000    0.5000    0.3125
  band No.  band energies     occupation 
      1       2.4069      2.00000
      2       2.4069      2.00000
      3       2.4069      2.00000
      4       2.4069      2.00000
      5       5.7291      2.00000
      6       5.7291      2.00000
      7       5.7291      2.00000
      8       5.7291      2.00000
      9      16.4804      0.00000
     10      16.4804      0.00000
     11      16.4804      0.00000
     12      16.4804      0.00000
     13      18.8158      0.00000
     14      18.8158      0.00000
     15      18.8158      0.00000
     16      18.8158      0.00000
     17      20.6004      0.00000
     18      20.6004      0.00000
     19      20.6004      0.00000
     20      20.6004      0.00000
     21      21.7991      0.00000
     22      21.7991      0.00000
     23      21.7991      0.00000
     24      21.7991      0.00000

 k-point   156 :       0.3750    0.3750    0.3750
  band No.  band energies     occupation 
      1       0.8346      2.00000
      2       3.0621      2.00000
      3       3.0621      2.00000
      4       3.0621      2.00000
      5       5.2891      2.00000
      6       5.2891      2.00000
      7       5.2891      2.00000
      8       7.4600      2.00000
      9      16.0940      0.00000
     10      16.0940      0.00000
     11      16.0940      0.00000
     12      17.4192      0.00000
     13      17.4192      0.00000
     14      17.4192      0.00000
     15      19.2283      0.00000
     16      19.2283      0.00000
     17      19.2283      0.00000
     18      19.3961      0.00000
     19      19.3961      0.00000
     20      21.3826      0.00000
     21      21.3826      0.00000
     22      23.0625      0.00000
     23      23.3793      0.00000
     24      23.3793      0.00000

 k-point   157 :       0.4375    0.3750    0.3750
  band No.  band energies     occupation 
      1       1.2910      2.00000
      2       2.4067      2.00000
      3       3.5021      2.00000
      4       3.5021      2.00000
      5       4.6492      2.00000
      6       4.6492      2.00000
      7       5.7303      2.00000
      8       6.8176      2.00000
      9      16.4805      0.00000
     10      16.4805      0.00000
     11      17.3805      0.00000
     12      17.3805      0.00000
     13      17.4932      0.00000
     14      17.8204      0.00000
     15      18.8088      0.00000
     16      19.5455      0.00000
     17      19.8103      0.00000
     18      20.0545      0.00000
     19      20.0545      0.00000
     20      20.2724      0.00000
     21      21.7882      0.00000
     22      22.4955      0.00000
     23      22.4955      0.00000
     24      22.7869      0.00000

 k-point   158 :       0.5000    0.3750    0.3750
  band No.  band energies     occupation 
      1       1.8155      2.00000
      2       1.8155      2.00000
      3       3.8857      2.00000
      4       3.8857      2.00000
      5       4.1990      2.00000
      6       4.1990      2.00000
      7       6.2405      2.00000
      8       6.2405      2.00000
      9      16.7715      0.00000
     10      16.7715      0.00000
     11      17.1212      0.00000
     12      17.1212      0.00000
     13      18.2836      0.00000
     14      18.2836      0.00000
     15      18.8888      0.00000
     16      18.8888      0.00000
     17      19.8129      0.00000
     18      19.8129      0.00000
     19      21.1804      0.00000
     20      21.1804      0.00000
     21      21.3892      0.00000
     22      21.3892      0.00000
     23      22.2564      0.00000
     24      22.2564      0.00000

 k-point   159 :       0.4375    0.4375    0.3750
  band No.  band energies     occupation 
      1       1.7458      2.00000
      2       2.8558      2.00000
      3       2.8558      2.00000
      4       3.8190      2.00000
      5       4.1288      2.00000
      6       5.0848      2.00000
      7       5.0848      2.00000
      8       6.1734      2.00000
      9      16.8933      0.00000
     10      17.6832      0.00000
     11      17.6832      0.00000
     12      17.9449      0.00000
     13      17.9449      0.00000
     14      18.2259      0.00000
     15      18.6561      0.00000
     16      19.9783      0.00000
     17      20.1608      0.00000
     18      20.2598      0.00000
     19      20.3104      0.00000
     20      20.3104      0.00000
     21      21.2507      0.00000
     22      21.9224      0.00000
     23      21.9224      0.00000
     24      22.2047      0.00000

 k-point   160 :       0.5000    0.4375    0.3750
  band No.  band energies     occupation 
      1       2.2681      2.00000
      2       2.2681      2.00000
      3       3.3658      2.00000
      4       3.3658      2.00000
      5       4.5116      2.00000
      6       4.5116      2.00000
      7       5.5949      2.00000
      8       5.5949      2.00000
      9      17.3215      0.00000
     10      17.3215      0.00000
     11      18.1918      0.00000
     12      18.1918      0.00000
     13      18.2413      0.00000
     14      18.2413      0.00000
     15      19.2059      0.00000
     16      19.2059      0.00000
     17      20.4370      0.00000
     18      20.4370      0.00000
     19      20.7918      0.00000
     20      20.7918      0.00000
     21      21.3943      0.00000
     22      21.3943      0.00000
     23      21.4448      0.00000
     24      21.4448      0.00000

 k-point   161 :       0.5000    0.5000    0.3750
  band No.  band energies     occupation 
      1       2.7869      2.00000
      2       2.7869      2.00000
      3       2.7869      2.00000
      4       2.7869      2.00000
      5       5.0165      2.00000
      6       5.0165      2.00000
      7       5.0165      2.00000
      8       5.0165      2.00000
      9      17.7686      0.00000
     10      17.7686      0.00000
     11      17.7686      0.00000
     12      17.7686      0.00000
     13      19.1560      0.00000
     14      19.1560      0.00000
     15      19.1560      0.00000
     16      19.1560      0.00000
     17      20.7093      0.00000
     18      20.7093      0.00000
     19      20.7093      0.00000
     20      20.7093      0.00000
     21      21.1482      0.00000
     22      21.1482      0.00000
     23      21.1482      0.00000
     24      21.1482      0.00000

 k-point   162 :       0.4375    0.4375    0.4375
  band No.  band energies     occupation 
      1       2.1987      2.00000
      2       3.2973      2.00000
      3       3.2973      2.00000
      4       3.2973      2.00000
      5       4.4432      2.00000
      6       4.4432      2.00000
      7       4.4432      2.00000
      8       5.5274      2.00000
      9      18.2399      0.00000
     10      18.2399      0.00000
     11      18.2399      0.00000
     12      18.6278      0.00000
     13      18.6278      0.00000
     14      18.6278      0.00000
     15      19.6174      0.00000
     16      19.6174      0.00000
     17      20.1645      0.00000
     18      20.1645      0.00000
     19      20.1645      0.00000
     20      20.6191      0.00000
     21      20.6191      0.00000
     22      21.6135      0.00000
     23      21.6135      0.00000
     24      21.6135      0.00000

 k-point   163 :       0.5000    0.4375    0.4375
  band No.  band energies     occupation 
      1       2.7178      2.00000
      2       2.7178      2.00000
      3       3.6854      2.00000
      4       3.6854      2.00000
      5       3.9882      2.00000
      6       3.9882      2.00000
      7       4.9486      2.00000
      8       4.9486      2.00000
      9      18.5301      0.00000
     10      18.5301      0.00000
     11      18.6837      0.00000
     12      18.6837      0.00000
     13      19.0917      0.00000
     14      19.0917      0.00000
     15      19.5217      0.00000
     16      19.5217      0.00000
     17      20.1384      0.00000
     18      20.1384      0.00000
     19      20.8119      0.00000
     20      20.8119      0.00000
     21      20.8886      0.00000
     22      20.8886      0.00000
     23      21.0847      0.00000
     24      21.0847      0.00000

 k-point   164 :       0.5000    0.5000    0.4375
  band No.  band energies     occupation 
      1       3.2289      2.00000
      2       3.2289      2.00000
      3       3.2289      2.00000
      4       3.2289      2.00000
      5       4.3743      2.00000
      6       4.3743      2.00000
      7       4.3743      2.00000
      8       4.3743      2.00000
      9      19.0008      0.00000
     10      19.0008      0.00000
     11      19.0008      0.00000
     12      19.0008      0.00000
     13      19.5566      0.00000
     14      19.5566      0.00000
     15      19.5566      0.00000
     16      19.5566      0.00000
     17      20.5607      0.00000
     18      20.5607      0.00000
     19      20.5607      0.00000
     20      20.5607      0.00000
     21      20.6006      0.00000
     22      20.6006      0.00000
     23      20.6006      0.00000
     24      20.6006      0.00000

 k-point   165 :       0.5000    0.5000    0.5000
  band No.  band energies     occupation 
      1       3.6187      2.00000
      2       3.6187      2.00000
      3       3.6187      2.00000
      4       3.6187      2.00000
      5       3.9177      2.00000
      6       3.9177      2.00000
      7       3.9177      2.00000
      8       3.9177      2.00000
      9      19.9558      0.00000
     10      19.9558      0.00000
     11      19.9558      0.00000
     12      19.9558      0.00000
     13      19.9558      0.00000
     14      19.9558      0.00000
     15      19.9558      0.00000
     16      19.9558      0.00000
     17      20.0999      0.00000
     18      20.0999      0.00000
     19      20.0999      0.00000
     20      20.0999      0.00000
     21      20.0999      0.00000
     22      20.0999      0.00000
     23      20.0999      0.00000
     24      20.0999      0.00000


--------------------------------------------------------------------------------------------------------


 soft charge-density along one line, spin component           1
         0         1         2         3         4         5         6         7         8         9
 total charge-density along one line
 
 pseudopotential strength for first ion, spin component:           1
  8.433  14.372  -0.000   0.000  -0.000  -0.000   0.000  -0.000
 14.372  24.494  -0.000   0.000  -0.000  -0.000   0.000  -0.000
 -0.000  -0.000   1.990  -0.000  -0.000   5.733  -0.000  -0.000
  0.000   0.000  -0.000   1.990  -0.000  -0.000   5.733  -0.000
 -0.000  -0.000  -0.000  -0.000   1.990  -0.000  -0.000   5.733
 -0.000  -0.000   5.733  -0.000  -0.000  16.435  -0.000  -0.000
  0.000   0.000  -0.000   5.733  -0.000  -0.000  16.435  -0.000
 -0.000  -0.000  -0.000  -0.000   5.733  -0.000  -0.000  16.435
 total augmentation occupancy for first ion, spin component:           1
  3.489  -0.885   0.000  -0.000   0.000  -0.000  -0.000  -0.000
 -0.885   0.291   0.000   0.000   0.000  -0.000   0.000   0.000
  0.000   0.000   1.160  -0.000   0.000  -0.077  -0.000  -0.000
 -0.000   0.000  -0.000   1.160   0.000  -0.000  -0.077   0.000
  0.000   0.000   0.000  -0.000   1.160  -0.000   0.000  -0.077
 -0.000  -0.000  -0.077   0.000   0.000   0.006   0.000  -0.000
 -0.000   0.000  -0.000  -0.077  -0.000  -0.000   0.006   0.000
 -0.000   0.000   0.000   0.000  -0.077  -0.000   0.000   0.006


------------------------ aborting loop because EDIFF is reached ----------------------------------------


    CHARGE:  cpu time      0.0130: real time      0.0130
    FORLOC:  cpu time      0.0001: real time      0.0001
    FORNL :  cpu time      0.0306: real time      0.0307
    STRESS:  cpu time      0.3405: real time      0.3423
    FORCOR:  cpu time      0.0018: real time      0.0018
    FORHAR:  cpu time      0.0005: real time      0.0005
    MIXING:  cpu time      0.0002: real time      0.0002
    OFIELD:  cpu time      0.0000: real time      0.0000

  FORCE on cell =-STRESS in cart. coord.  units (eV):
  Direction    XX          YY          ZZ          XY          YZ          ZX
  --------------------------------------------------------------------------------------
  Alpha Z    -0.84094    -0.84094    -0.84094
  Ewald     -99.08042   -99.08042   -99.08042    -0.00000     0.00000     0.00000
  Hartree     0.14735     0.14735     0.14735    -0.00000    -0.00000    -0.00000
  E(xc)     -34.61292   -34.61292   -34.61292    -0.00000     0.00000    -0.00000
  Local       1.94382     1.94382     1.94382     0.00000     0.00000    -0.00000
  n-local    74.83116    75.73905    77.92661     0.34927     1.14925     0.48269
  augment    -4.04191    -4.04191    -4.04191     0.00000     0.00000     0.00000
  Kinetic    58.39587    60.72577    64.83382     1.65368    -8.34531    -1.65827
  Fock        0.00000     0.00000     0.00000     0.00000     0.00000     0.00000
  -------------------------------------------------------------------------------------
  Total       0.99905     0.99905     0.99905     0.00000    -0.00000     0.00000
  in kB      25.04729    25.04729    25.04729     0.00000    -0.00000     0.00000
  external pressure =       25.05 kB  Pullay stress =        0.00 kB


 VOLUME and BASIS-vectors are now :
 -----------------------------------------------------------------------------
  energy-cutoff  :      400.00
  volume of cell :       63.91
      direct lattice vectors                 reciprocal lattice vectors
     3.998029037  0.000000000  0.000000000     0.250123246  0.000000000  0.000000000
     0.000000000  3.998029037  0.000000000     0.000000000  0.250123246  0.000000000
     0.000000000  0.000000000  3.998029037     0.000000000  0.000000000  0.250123246

  length of vectors
     3.998029037  3.998029037  3.998029037     0.250123246  0.250123246  0.250123246


 FORCES acting on ions
    electron-ion (+dipol)            ewald-force                    non-local-force                 convergence-correction
 -----------------------------------------------------------------------------------------------
   -.561E-14 -.668E-15 0.858E-14   -.120E-14 -.433E-15 0.527E-15   0.247E-26 0.230E-24 -.260E-24   -.516E-15 -.106E-15 0.203E-14
   -.845E-14 -.224E-14 -.682E-15   -.120E-14 0.593E-15 0.391E-15   0.585E-25 -.937E-25 0.187E-24   -.571E-15 0.914E-16 -.212E-14
   -.463E-14 -.109E-14 -.325E-13   0.112E-14 -.567E-15 0.385E-15   0.216E-25 0.173E-24 0.591E-25   0.505E-15 -.117E-15 -.214E-14
   -.400E-14 -.837E-14 0.222E-13   0.112E-14 0.458E-15 -.112E-14   0.203E-24 0.439E-25 -.299E-27   0.536E-15 0.106E-15 0.204E-14
 -----------------------------------------------------------------------------------------------
   -.227E-13 -.124E-13 -.241E-14   -.159E-15 0.506E-16 0.181E-15   0.285E-24 0.353E-24 -.141E-25   -.461E-16 -.246E-16 -.194E-15
 
 
 POSITION                                       TOTAL-FORCE (eV/Angst)
 -----------------------------------------------------------------------------------
      0.00000      0.00000      0.00000        -0.000000     -0.000000     -0.000000
      0.00000      1.99901      1.99901         0.000000      0.000000      0.000000
      1.99901      0.00000      1.99901        -0.000000      0.000000      0.000000
      1.99901      1.99901      0.00000         0.000000     -0.000000      0.000000
 -----------------------------------------------------------------------------------
    total drift:                               -0.000000     -0.000000     -0.000000


--------------------------------------------------------------------------------------------------------



  FREE ENERGIE OF THE ION-ELECTRON SYSTEM (eV)
  ---------------------------------------------------
  free  energy   TOTEN  =       -14.97265677 eV

  energy  without entropy=      -14.97132013  energy(sigma->0) =      -14.97198845
 


--------------------------------------------------------------------------------------------------------


    POTLOK:  cpu time      0.0029: real time      0.0029


--------------------------------------------------------------------------------------------------------




--------------------------------------------------------------------------------------------------------


  
 reached required accuracy - stopping structural energy minimisation
 writing wavefunctions
     LOOP+:  cpu time     10.0566: real time     10.2190
    4ORBIT:  cpu time      0.0000: real time      0.0000

 total amount of memory used by VASP MPI-rank0    46686. kBytes
=======================================================================

   base      :      30000. kBytes
   nonl-proj :      12748. kBytes
   fftplans  :        147. kBytes
   grid      :        485. kBytes
   one-center:         12. kBytes
   wavefun   :       3294. kBytes
 
  
  
 General timing and accounting informations for this job:
 ========================================================
  
                  Total CPU time used (sec):       10.927
                            User time (sec):       10.490
                          System time (sec):        0.437
                         Elapsed time (sec):       12.815
  
                   Maximum memory used (kb):      290952.
                   Average memory used (kb):          N/A
  
                          Minor page faults:        32196
                          Major page faults:         1908
                 Voluntary context switches:         3538
