<?xml version="1.0" encoding="ISO-8859-1"?>
<modeling>
 <generator>
  <i name="program" type="string">vasp </i>
  <i name="version" type="string">6.3.0  </i>
  <i name="subversion" type="string">20Jan22 (build Feb 10 2022 15:15:41) complex                          parallel </i>
  <i name="platform" type="string">LinuxIFC </i>
  <i name="date" type="string">2023 10 04 </i>
  <i name="time" type="string">10:20:37 </i>
 </generator>
 <incar>
  <i type="int" name="ICHARG">    11</i>
  <i name="ENCUT">    360.00000000</i>
  <i type="int" name="ISMEAR">     0</i>
  <i name="SIGMA">      0.05000000</i>
  <i type="int" name="LORBIT">    11</i>
 </incar>
 <primitive_cell>
  <structure name="primitive_cell" >
   <crystal>
    <varray name="basis" >
     <v>       3.31453371      -3.31453371       0.00000000 </v>
     <v>       3.31453371       0.00000000       3.31453371 </v>
     <v>       0.00000000      -3.31453371       3.31453371 </v>
    </varray>
    <i name="volume">     72.82782121 </i>
    <varray name="rec_basis" >
     <v>       0.15085078      -0.15085078      -0.15085078 </v>
     <v>       0.15085078       0.15085078       0.15085078 </v>
     <v>      -0.15085078      -0.15085078       0.15085078 </v>
    </varray>
   </crystal>
   <varray name="positions" >
    <v>       0.00000000       0.00000000       0.00000000 </v>
    <v>       0.75000000       0.75000000       0.75000000 </v>
   </varray>
  </structure>
  <varray name="primitive_index" >
   <v type="int" >        1 </v>
   <v type="int" >        5 </v>
  </varray>
 </primitive_cell>
 <kpoints>
  <generation param="listgenerated">
   <i name="divisions" type="int">      10 </i>
   <v>       0.00000000       0.00000000       0.00000000 </v>
   <v>       0.50000000       0.00000000       0.50000000 </v>
   <v>       0.50000000       0.25000000       0.75000000 </v>
   <v>       0.37500000       0.37500000       0.75000000 </v>
   <v>       0.00000000       0.00000000       0.00000000 </v>
  </generation>
  <varray name="kpointlist" >
   <v>       0.00000000       0.00000000       0.00000000 </v>
   <v>       0.05555556       0.00000000       0.05555556 </v>
   <v>       0.11111111       0.00000000       0.11111111 </v>
   <v>       0.16666667       0.00000000       0.16666667 </v>
   <v>       0.22222222       0.00000000       0.22222222 </v>
   <v>       0.27777778       0.00000000       0.27777778 </v>
   <v>       0.33333333       0.00000000       0.33333333 </v>
   <v>       0.38888889       0.00000000       0.38888889 </v>
   <v>       0.44444444       0.00000000       0.44444444 </v>
   <v>       0.50000000       0.00000000       0.50000000 </v>
   <v>       0.50000000       0.00000000       0.50000000 </v>
   <v>       0.50000000       0.02777778       0.52777778 </v>
   <v>       0.50000000       0.05555556       0.55555556 </v>
   <v>       0.50000000       0.08333333       0.58333333 </v>
   <v>       0.50000000       0.11111111       0.61111111 </v>
   <v>       0.50000000       0.13888889       0.63888889 </v>
   <v>       0.50000000       0.16666667       0.66666667 </v>
   <v>       0.50000000       0.19444444       0.69444444 </v>
   <v>       0.50000000       0.22222222       0.72222222 </v>
   <v>       0.50000000       0.25000000       0.75000000 </v>
   <v>       0.50000000       0.25000000       0.75000000 </v>
   <v>       0.48611111       0.26388889       0.75000000 </v>
   <v>       0.47222222       0.27777778       0.75000000 </v>
   <v>       0.45833333       0.29166667       0.75000000 </v>
   <v>       0.44444444       0.30555556       0.75000000 </v>
   <v>       0.43055556       0.31944444       0.75000000 </v>
   <v>       0.41666667       0.33333333       0.75000000 </v>
   <v>       0.40277778       0.34722222       0.75000000 </v>
   <v>       0.38888889       0.36111111       0.75000000 </v>
   <v>       0.37500000       0.37500000       0.75000000 </v>
   <v>       0.37500000       0.37500000       0.75000000 </v>
   <v>       0.33333333       0.33333333       0.66666667 </v>
   <v>       0.29166667       0.29166667       0.58333333 </v>
   <v>       0.25000000       0.25000000       0.50000000 </v>
   <v>       0.20833333       0.20833333       0.41666667 </v>
   <v>       0.16666667       0.16666667       0.33333333 </v>
   <v>       0.12500000       0.12500000       0.25000000 </v>
   <v>       0.08333333       0.08333333       0.16666667 </v>
   <v>       0.04166667       0.04166667       0.08333333 </v>
   <v>       0.00000000       0.00000000       0.00000000 </v>
  </varray>
  <varray name="weights" >
   <v>       0.02500000 </v>
   <v>       0.02500000 </v>
   <v>       0.02500000 </v>
   <v>       0.02500000 </v>
   <v>       0.02500000 </v>
   <v>       0.02500000 </v>
   <v>       0.02500000 </v>
   <v>       0.02500000 </v>
   <v>       0.02500000 </v>
   <v>       0.02500000 </v>
   <v>       0.02500000 </v>
   <v>       0.02500000 </v>
   <v>       0.02500000 </v>
   <v>       0.02500000 </v>
   <v>       0.02500000 </v>
   <v>       0.02500000 </v>
   <v>       0.02500000 </v>
   <v>       0.02500000 </v>
   <v>       0.02500000 </v>
   <v>       0.02500000 </v>
   <v>       0.02500000 </v>
   <v>       0.02500000 </v>
   <v>       0.02500000 </v>
   <v>       0.02500000 </v>
   <v>       0.02500000 </v>
   <v>       0.02500000 </v>
   <v>       0.02500000 </v>
   <v>       0.02500000 </v>
   <v>       0.02500000 </v>
   <v>       0.02500000 </v>
   <v>       0.02500000 </v>
   <v>       0.02500000 </v>
   <v>       0.02500000 </v>
   <v>       0.02500000 </v>
   <v>       0.02500000 </v>
   <v>       0.02500000 </v>
   <v>       0.02500000 </v>
   <v>       0.02500000 </v>
   <v>       0.02500000 </v>
   <v>       0.02500000 </v>
  </varray>
 </kpoints>
 <parameters>
  <separator name="general" >
   <i type="string" name="SYSTEM">unknown system</i>
   <i type="logical" name="LCOMPAT"> F  </i>
  </separator>
  <separator name="electronic" >
   <i type="string" name="PREC">normal</i>
   <i name="ENMAX">    360.00000000</i>
   <i name="ENAUG">    456.10600000</i>
   <i name="EDIFF">      0.00010000</i>
   <i type="int" name="IALGO">    38</i>
   <i type="int" name="IWAVPR">    10</i>
   <i type="int" name="NBANDS">    48</i>
   <i type="int" name="NBANDSLOW">    -1</i>
   <i type="int" name="NBANDSHIGH">    -1</i>
   <i name="NELECT">     72.00000000</i>
   <i type="int" name="TURBO">     0</i>
   <i type="int" name="IRESTART">     0</i>
   <i type="int" name="NREBOOT">     0</i>
   <i type="int" name="NMIN">     0</i>
   <i name="EREF">      0.00000000</i>
   <separator name="electronic smearing" >
    <i type="int" name="ISMEAR">     0</i>
    <i name="SIGMA">      0.05000000</i>
    <i name="KSPACING">      0.50000000</i>
    <i type="logical" name="KGAMMA"> T  </i>
    <i type="logical" name="KBLOWUP"> T  </i>
   </separator>
   <separator name="electronic projectors" >
    <i type="logical" name="LREAL"> F  </i>
    <v name="ROPT">      0.00000000      0.00000000</v>
    <i type="int" name="LMAXPAW">  -100</i>
    <i type="int" name="LMAXMIX">     2</i>
    <i type="logical" name="NLSPLINE"> F  </i>
   </separator>
   <separator name="electronic startup" >
    <i type="int" name="ISTART">     0</i>
    <i type="int" name="ICHARG">    11</i>
    <i type="int" name="INIWAV">     1</i>
   </separator>
   <separator name="electronic spin" >
    <i type="int" name="ISPIN">     1</i>
    <i type="logical" name="LNONCOLLINEAR"> F  </i>
    <v name="MAGMOM">      1.00000000      1.00000000      1.00000000      1.00000000      1.00000000      1.00000000      1.00000000      1.00000000</v>
    <i name="NUPDOWN">     -1.00000000</i>
    <i type="logical" name="LSORBIT"> F  </i>
    <v name="SAXIS">      0.00000000      0.00000000      1.00000000</v>
    <i type="logical" name="LSPIRAL"> F  </i>
    <v name="QSPIRAL">      0.00000000      0.00000000      0.00000000</v>
    <i type="logical" name="LZEROZ"> F  </i>
   </separator>
   <separator name="electronic exchange-correlation" >
    <i type="logical" name="LASPH"> F  </i>
    <i type="logical" name="LMETAGGA"> F  </i>
   </separator>
   <separator name="electronic convergence" >
    <i type="int" name="NELM">    60</i>
    <i type="int" name="NELMDL">     0</i>
    <i type="int" name="NELMIN">     2</i>
    <i name="ENINI">    360.00000000</i>
    <separator name="electronic convergence detail" >
     <i type="logical" name="LDIAG"> T  </i>
     <i type="logical" name="LSUBROT"> F  </i>
     <i name="WEIMIN">      0.00000000</i>
     <i name="EBREAK">      0.00000052</i>
     <i name="DEPER">      0.30000000</i>
     <i type="int" name="NRMM">     4</i>
     <i name="TIME">      0.40000000</i>
    </separator>
   </separator>
   <separator name="electronic mixer" >
    <i name="AMIX">      0.40000000</i>
    <i name="BMIX">      1.00000000</i>
    <i name="AMIN">      0.10000000</i>
    <i name="AMIX_MAG">      1.60000000</i>
    <i name="BMIX_MAG">      1.00000000</i>
    <separator name="electronic mixer details" >
     <i type="int" name="IMIX">     4</i>
     <i type="logical" name="MIXFIRST"> F  </i>
     <i type="int" name="MAXMIX">   -45</i>
     <i name="WC">    100.00000000</i>
     <i type="int" name="INIMIX">     1</i>
     <i type="int" name="MIXPRE">     1</i>
     <i type="int" name="MREMOVE">     5</i>
    </separator>
   </separator>
   <separator name="electronic dipolcorrection" >
    <i type="logical" name="LDIPOL"> F  </i>
    <i type="logical" name="LMONO"> F  </i>
    <i type="int" name="IDIPOL">     0</i>
    <i name="EPSILON">      1.00000000</i>
    <v name="DIPOL">   -100.00000000   -100.00000000   -100.00000000</v>
    <i name="EFIELD">      0.00000000</i>
   </separator>
  </separator>
  <separator name="grids" >
   <i type="int" name="NGX">    32</i>
   <i type="int" name="NGY">    32</i>
   <i type="int" name="NGZ">    32</i>
   <i type="int" name="NGXF">    64</i>
   <i type="int" name="NGYF">    64</i>
   <i type="int" name="NGZF">    64</i>
   <i type="logical" name="ADDGRID"> F  </i>
  </separator>
  <separator name="ionic" >
   <i type="int" name="NSW">     0</i>
   <i type="int" name="IBRION">    -1</i>
   <i type="int" name="MDALGO">     0</i>
   <i type="int" name="ISIF">     2</i>
   <i name="PSTRESS">      0.00000000</i>
   <i name="EDIFFG">      0.00100000</i>
   <i type="int" name="NFREE">     0</i>
   <i name="POTIM">      0.50000000</i>
   <i name="SMASS">     -3.00000000</i>
   <i name="SCALEE">      1.00000000</i>
  </separator>
  <separator name="ionic md" >
   <i name="TEBEG">      0.00010000</i>
   <i name="TEEND">      0.00010000</i>
   <i type="int" name="NBLOCK">     1</i>
   <i type="int" name="KBLOCK">     1</i>
   <i type="int" name="NPACO">   256</i>
   <i name="APACO">     10.00000000</i>
  </separator>
  <separator name="symmetry" >
   <i type="int" name="ISYM">     2</i>
   <i name="SYMPREC">      0.00001000</i>
  </separator>
  <separator name="dos" >
   <i type="int" name="LORBIT">    11</i>
   <v name="RWIGS">     -1.00000000     -1.00000000</v>
   <i type="int" name="NEDOS">   301</i>
   <i name="EMIN">     10.00000000</i>
   <i name="EMAX">    -10.00000000</i>
   <i name="EFERMI">      0.00000000</i>
  </separator>
  <separator name="writing" >
   <i type="int" name="NWRITE">     2</i>
   <i type="logical" name="LWAVE"> T  </i>
   <i type="logical" name="LDOWNSAMPLE"> F  </i>
   <i type="logical" name="LCHARG"> T  </i>
   <i type="logical" name="LPARD"> F  </i>
   <i type="logical" name="LVTOT"> F  </i>
   <i type="logical" name="LVHAR"> F  </i>
   <i type="logical" name="LELF"> F  </i>
   <i type="logical" name="LOPTICS"> F  </i>
   <v name="STM">      0.00000000      0.00000000      0.00000000      0.00000000      0.00000000      0.00000000      0.00000000</v>
  </separator>
  <separator name="performance" >
   <i type="int" name="NPAR">    24</i>
   <i type="int" name="NSIM">     4</i>
   <i type="int" name="NBLK">    -1</i>
   <i type="logical" name="LPLANE"> T  </i>
   <i type="logical" name="LSCALAPACK"> T  </i>
   <i type="logical" name="LSCAAWARE"> F  </i>
   <i type="logical" name="LSCALU"> F  </i>
   <i type="logical" name="LASYNC"> F  </i>
   <i type="logical" name="LORBITALREAL"> F  </i>
  </separator>
  <separator name="miscellaneous" >
   <i type="int" name="IDIOT">     3</i>
   <i type="int" name="PHON_NSTRUCT">    -1</i>
   <i type="logical" name="LMUSIC"> F  </i>
   <v name="POMASS">    112.41100000    127.60000000</v>
   <v name="DARWINR">      0.00000000      0.00000000</v>
   <v name="DARWINV">      1.00000000      1.00000000</v>
   <i type="logical" name="LCORR"> T  </i>
  </separator>
  <i type="logical" name="GGA_COMPAT"> T  </i>
  <i type="logical" name="LBERRY"> F  </i>
  <i type="int" name="ICORELEVEL">     0</i>
  <i type="logical" name="LDAU"> F  </i>
  <i type="int" name="I_CONSTRAINED_M">     0</i>
  <separator name="electronic exchange-correlation" >
   <i type="string" name="GGA">--</i>
   <i type="int" name="VOSKOWN">     0</i>
   <i type="logical" name="LHFCALC"> F  </i>
   <i type="string" name="PRECFOCK"></i>
   <i type="logical" name="LSYMGRAD"> F  </i>
   <i type="logical" name="LHFONE"> F  </i>
   <i type="logical" name="LRHFCALC"> F  </i>
   <i type="logical" name="LTHOMAS"> F  </i>
   <i type="logical" name="LMODELHF"> F  </i>
   <i type="logical" name="LFOCKACE"> F  </i>
   <i name="ENCUT4O">     -1.00000000</i>
   <i type="int" name="EXXOEP">     0</i>
   <i type="int" name="FOURORBIT">     0</i>
   <i name="AEXX">      0.00000000</i>
   <i name="HFALPHA">      0.00000000</i>
   <i name="MCALPHA">      0.00000000</i>
   <i name="ALDAX">      1.00000000</i>
   <i name="AGGAX">      1.00000000</i>
   <i name="ALDAC">      1.00000000</i>
   <i name="AGGAC">      1.00000000</i>
   <i type="int" name="NKREDX">     1</i>
   <i type="int" name="NKREDY">     1</i>
   <i type="int" name="NKREDZ">     1</i>
   <i type="logical" name="SHIFTRED"> F  </i>
   <i type="logical" name="ODDONLY"> F  </i>
   <i type="logical" name="EVENONLY"> F  </i>
   <i type="int" name="LMAXFOCK">     0</i>
   <i type="int" name="NMAXFOCKAE">     0</i>
   <i type="logical" name="LFOCKAEDFT"> F  </i>
   <i name="HFSCREEN">      0.00000000</i>
   <i name="HFSCREENC">      0.00000000</i>
   <i type="int" name="NBANDSGWLOW">     0</i>
  </separator>
  <separator name="vdW DFT" >
   <i type="logical" name="LUSE_VDW"> F  </i>
   <i name="Zab_VDW">     -0.84910000</i>
   <i name="PARAM1">      0.12340000</i>
   <i name="PARAM2">      1.00000000</i>
   <i name="PARAM3">      0.00000000</i>
  </separator>
  <separator name="model GW" >
   <i type="int" name="MODEL_GW">     0</i>
   <i name="MODEL_EPS0">     21.84834636</i>
   <i name="MODEL_ALPHA">      1.00000000</i>
  </separator>
  <separator name="linear response parameters" >
   <i type="logical" name="LEPSILON"> F  </i>
   <i type="logical" name="LRPA"> F  </i>
   <i type="logical" name="LNABLA"> F  </i>
   <i type="logical" name="LVEL"> F  </i>
   <i name="CSHIFT">      0.10000000</i>
   <i name="OMEGAMAX">     -1.00000000</i>
   <i name="DEG_THRESHOLD">      0.00200000</i>
   <i name="RTIME">     -0.10000000</i>
   <i name="WPLASMAI">      0.00000000</i>
   <v name="DFIELD">      0.00000000      0.00000000      0.00000000</v>
   <v name="WPLASMA">      0.00000000      0.00000000      0.00000000      0.00000000      0.00000000      0.00000000      0.00000000      0.00000000      0.00000000</v>
  </separator>
  <separator name="orbital magnetization" >
   <i type="logical" name="NUCIND"> F  </i>
   <v name="MAGPOS">      0.00000000      0.00000000      0.00000000</v>
   <i type="logical" name="LNICSALL"> T  </i>
   <i type="logical" name="ORBITALMAG"> F  </i>
   <i type="logical" name="LMAGBLOCH"> F  </i>
   <i type="logical" name="LCHIMAG"> F  </i>
   <i type="logical" name="LGAUGE"> T  </i>
   <i type="int" name="MAGATOM">     0</i>
   <v name="MAGDIPOL">      0.00000000      0.00000000      0.00000000</v>
   <v name="AVECCONST">      0.00000000      0.00000000      0.00000000</v>
  </separator>
  <separator name="response functions" >
   <i type="logical" name="LFINITE_TEMPERATURE"> F  </i>
   <i type="logical" name="LADDER"> F  </i>
   <i type="logical" name="LRPAFORCE"> F  </i>
   <i type="logical" name="LFXC"> F  </i>
   <i type="logical" name="LHARTREE"> T  </i>
   <i type="int" name="IBSE">     0</i>
   <v type="int" name="KPOINT">    -1     0     0     0</v>
   <i type="logical" name="LTCTC"> F  </i>
   <i type="logical" name="LTCTE"> F  </i>
   <i type="logical" name="LTETE"> F  </i>
   <i type="logical" name="LTRIPLET"> F  </i>
   <i type="logical" name="LFXCEPS"> F  </i>
   <i type="logical" name="LFXHEG"> F  </i>
   <i type="int" name="NATURALO">     2</i>
   <i type="logical" name="LHOLEGF"> F  </i>
   <i type="logical" name="L2ORDER"> F  </i>
   <i type="logical" name="LDMP1"> F  </i>
   <i type="logical" name="LMP2LT"> F  </i>
   <i type="logical" name="LSMP2LT"> F  </i>
   <i type="logical" name="LGWLF"> F  </i>
   <i name="ENCUTGW">     -2.00000000</i>
   <i name="ENCUTGWSOFT">     -2.00000000</i>
   <i name="ENCUTLF">     -1.00000000</i>
   <i type="logical" name="LESF_SPLINES"> F  </i>
   <i type="int" name="LMAXMP2">    -1</i>
   <i name="SCISSOR">      0.00000000</i>
   <i type="int" name="NOMEGA">     0</i>
   <i type="int" name="NOMEGAR">     0</i>
   <i type="int" name="NBANDSGW">    -1</i>
   <i type="int" name="NBANDSO">    -1</i>
   <i type="int" name="NBANDSV">    -1</i>
   <i type="int" name="NELMGW">     1</i>
   <i type="int" name="NELMHF">     1</i>
   <i type="int" name="DIM">     3</i>
   <i type="int" name="IESPILON">     4</i>
   <i type="int" name="ANTIRES">     0</i>
   <i name="OMEGAMAX">    -30.00000000</i>
   <i name="OMEGAMIN">    -30.00000000</i>
   <i name="OMEGATL">   -200.00000000</i>
   <i type="int" name="OMEGAGRID">     0</i>
   <i name="CSHIFT">     -0.10000000</i>
   <i type="logical" name="LSELFENERGY"> F  </i>
   <i type="logical" name="LSPECTRAL"> F  </i>
   <i type="logical" name="LSPECTRALGW"> F  </i>
   <i type="logical" name="LSINGLES"> F  </i>
   <i type="logical" name="LFERMIGW"> F  </i>
   <i type="logical" name="ODDONLYGW"> F  </i>
   <i type="logical" name="EVENONLYGW"> F  </i>
   <i type="int" name="NKREDLFX">     1</i>
   <i type="int" name="NKREDLFY">     1</i>
   <i type="int" name="NKREDLFZ">     1</i>
   <i type="int" name="MAXMEM">  2800</i>
   <i type="int" name="TELESCOPE">     0</i>
   <i type="int" name="NTAUPAR">    -1</i>
   <i type="int" name="NOMEGAPAR">    -1</i>
   <i name="DAMP_NEWTON">      0.80000001</i>
   <i name="LAMBDA">      1.00000000</i>
  </separator>
  <separator name="External order field" >
   <i name="OFIELD_KAPPA">      0.00000000</i>
   <v name="OFIELD_K">      0.00000000      0.00000000      0.00000000</v>
   <i name="OFIELD_Q6_NEAR">      0.00000000</i>
   <i name="OFIELD_Q6_FAR">      0.00000000</i>
   <i name="OFIELD_A">      0.00000000</i>
  </separator>
  <separator name="optional k-points parameters" >
   <i type="int" name="KPOINTS_OPT_MODE">     1</i>
   <i type="logical" name="LKPOINTS_OPT"> F  </i>
  </separator>
 </parameters>
 <atominfo>
  <atoms>       8 </atoms>
  <types>       2 </types>
  <array name="atoms" >
   <dimension dim="1">ion</dimension>
   <field type="string">element</field>
   <field type="int">atomtype</field>
   <set>
    <rc><c>Cd</c><c>   1</c></rc>
    <rc><c>Cd</c><c>   1</c></rc>
    <rc><c>Cd</c><c>   1</c></rc>
    <rc><c>Cd</c><c>   1</c></rc>
    <rc><c>Te</c><c>   2</c></rc>
    <rc><c>Te</c><c>   2</c></rc>
    <rc><c>Te</c><c>   2</c></rc>
    <rc><c>Te</c><c>   2</c></rc>
   </set>
  </array>
  <array name="atomtypes" >
   <dimension dim="1">type</dimension>
   <field type="int">atomspertype</field>
   <field type="string">element</field>
   <field>mass</field>
   <field>valence</field>
   <field type="string">pseudopotential</field>
   <set>
    <rc><c>   4</c><c>Cd</c><c>    112.41100000</c><c>     12.00000000</c><c>  PAW_PBE Cd 06Sep2000                  </c></rc>
    <rc><c>   4</c><c>Te</c><c>    127.60000000</c><c>      6.00000000</c><c>  PAW_PBE Te 08Apr2002                  </c></rc>
   </set>
  </array>
 </atominfo>
 <structure name="initialpos" >
  <crystal>
   <varray name="basis" >
    <v>       6.62906742       0.00000000       0.00000000 </v>
    <v>       0.00000000       6.62906742       0.00000000 </v>
    <v>       0.00000000       0.00000000       6.62906742 </v>
   </varray>
   <i name="volume">    291.31128482 </i>
   <varray name="rec_basis" >
    <v>       0.15085078       0.00000000       0.00000000 </v>
    <v>       0.00000000       0.15085078       0.00000000 </v>
    <v>       0.00000000       0.00000000       0.15085078 </v>
   </varray>
  </crystal>
  <varray name="positions" >
   <v>       0.00000000       0.00000000       0.00000000 </v>
   <v>       0.00000000       0.50000000       0.50000000 </v>
   <v>       0.50000000       0.00000000       0.50000000 </v>
   <v>       0.50000000       0.50000000       0.00000000 </v>
   <v>       0.25000000       0.25000000       0.25000000 </v>
   <v>       0.25000000       0.75000000       0.75000000 </v>
   <v>       0.75000000       0.25000000       0.75000000 </v>
   <v>       0.75000000       0.75000000       0.25000000 </v>
  </varray>
 </structure>
 <calculation>
  <scstep>
   <time name="dav">    0.81    0.82</time>
   <time name="total">    0.82    0.84</time>
   <energy>
    <i name="alphaZ">    187.68682004 </i>
    <i name="ewald">  -4087.04766253 </i>
    <i name="hartreedc">  -2066.19452178 </i>
    <i name="XCdc">    -91.20622612 </i>
    <i name="pawpsdc">   6759.99651129 </i>
    <i name="pawaedc">  -6468.59432206 </i>
    <i name="eentropy">     -0.00496044 </i>
    <i name="bandstr">     37.15962256 </i>
    <i name="atom">   6065.63052842 </i>
    <i name="e_fr_energy">    337.42578938 </i>
    <i name="e_wo_entrp">    337.43074982 </i>
    <i name="e_0_energy">    337.42826960 </i>
   </energy>
  </scstep>
  <scstep>
   <time name="dav">    0.95    0.96</time>
   <time name="total">    0.95    0.96</time>
   <energy>
    <i name="e_fr_energy">     -7.21771300 </i>
    <i name="e_wo_entrp">     -7.21771299 </i>
    <i name="e_0_energy">     -7.21771299 </i>
   </energy>
  </scstep>
  <scstep>
   <time name="dav">    0.87    0.87</time>
   <time name="total">    0.87    0.87</time>
   <energy>
    <i name="e_fr_energy">    -18.60661664 </i>
    <i name="e_wo_entrp">    -18.60661664 </i>
    <i name="e_0_energy">    -18.60661664 </i>
   </energy>
  </scstep>
  <scstep>
   <time name="dav">    1.26    1.26</time>
   <time name="total">    1.26    1.26</time>
   <energy>
    <i name="e_fr_energy">    -18.72227691 </i>
    <i name="e_wo_entrp">    -18.72227691 </i>
    <i name="e_0_energy">    -18.72227691 </i>
   </energy>
  </scstep>
  <scstep>
   <time name="dav">    0.89    0.90</time>
   <time name="total">    0.89    0.90</time>
   <energy>
    <i name="e_fr_energy">    -18.72254249 </i>
    <i name="e_wo_entrp">    -18.72254249 </i>
    <i name="e_0_energy">    -18.72254249 </i>
   </energy>
  </scstep>
  <scstep>
   <time name="dav">    1.10    1.10</time>
   <time name="total">    1.10    1.10</time>
   <energy>
    <i name="alphaZ">    187.68682004 </i>
    <i name="ewald">  -4087.04766253 </i>
    <i name="hartreedc">  -2066.19452178 </i>
    <i name="XCdc">    -91.20622612 </i>
    <i name="pawpsdc">   6759.99651129 </i>
    <i name="pawaedc">  -6468.59432206 </i>
    <i name="eentropy">     -0.00000000 </i>
    <i name="bandstr">   -318.99367540 </i>
    <i name="atom">   6065.63052842 </i>
    <i name="e_fr_energy">    -18.72254814 </i>
    <i name="e_wo_entrp">    -18.72254814 </i>
    <i name="e_0_energy">    -18.72254814 </i>
   </energy>
  </scstep>
  <structure>
   <crystal>
    <varray name="basis" >
     <v>       6.62906742       0.00000000       0.00000000 </v>
     <v>       0.00000000       6.62906742       0.00000000 </v>
     <v>       0.00000000       0.00000000       6.62906742 </v>
    </varray>
    <i name="volume">    291.31128482 </i>
    <varray name="rec_basis" >
     <v>       0.15085078       0.00000000       0.00000000 </v>
     <v>       0.00000000       0.15085078       0.00000000 </v>
     <v>       0.00000000       0.00000000       0.15085078 </v>
    </varray>
   </crystal>
   <varray name="positions" >
    <v>       0.00000000       0.00000000       0.00000000 </v>
    <v>       0.00000000       0.50000000       0.50000000 </v>
    <v>       0.50000000       0.00000000       0.50000000 </v>
    <v>       0.50000000       0.50000000       0.00000000 </v>
    <v>       0.25000000       0.25000000       0.25000000 </v>
    <v>       0.25000000       0.75000000       0.75000000 </v>
    <v>       0.75000000       0.25000000       0.75000000 </v>
    <v>       0.75000000       0.75000000       0.25000000 </v>
   </varray>
  </structure>
  <varray name="forces" >
   <v>       0.00000000       0.00000000      -0.00000000 </v>
   <v>       0.00000000      -0.00000000       0.00000000 </v>
   <v>       0.00000000      -0.00000000       0.00000000 </v>
   <v>       0.00000000       0.00000000       0.00000000 </v>
   <v>      -0.00000000       0.00000000      -0.00000000 </v>
   <v>      -0.00000000       0.00000000      -0.00000000 </v>
   <v>      -0.00000000       0.00000000      -0.00000000 </v>
   <v>      -0.00000000       0.00000000      -0.00000000 </v>
  </varray>
  <varray name="stress" >
   <v>       1.50409071       0.00000000       0.00000000 </v>
   <v>       0.00000000       1.50409071       0.00000000 </v>
   <v>      -0.00000000       0.00000000       1.50409071 </v>
  </varray>
  <energy>
   <i name="e_fr_energy">    -18.72254814 </i>
   <i name="e_wo_entrp">    -18.72254814 </i>
   <i name="e_0_energy">    -18.72254814 </i>
  </energy>
  <time name="totalsc">    7.35    7.49</time>
  <eigenvalues>
   <array>
    <dimension dim="1">band</dimension>
    <dimension dim="2">kpoint</dimension>
    <dimension dim="3">spin</dimension>
    <field>eigene</field>
    <field>occ</field>
    <set>
     <set comment="spin 1">
      <set comment="kpoint 1">
       <r>   -9.0551    1.0000 </r>
       <r>   -8.6155    1.0000 </r>
       <r>   -8.6155    1.0000 </r>
       <r>   -8.6155    1.0000 </r>
       <r>   -6.3083    1.0000 </r>
       <r>   -6.3083    1.0000 </r>
       <r>   -6.3083    1.0000 </r>
       <r>   -6.1755    1.0000 </r>
       <r>   -6.1755    1.0000 </r>
       <r>   -6.1755    1.0000 </r>
       <r>   -6.1755    1.0000 </r>
       <r>   -6.1755    1.0000 </r>
       <r>   -6.1755    1.0000 </r>
       <r>   -6.1711    1.0000 </r>
       <r>   -6.1711    1.0000 </r>
       <r>   -6.1711    1.0000 </r>
       <r>   -6.0923    1.0000 </r>
       <r>   -6.0923    1.0000 </r>
       <r>   -6.0669    1.0000 </r>
       <r>   -6.0669    1.0000 </r>
       <r>   -6.0669    1.0000 </r>
       <r>   -5.6784    1.0000 </r>
       <r>   -5.6784    1.0000 </r>
       <r>   -5.6784    1.0000 </r>
       <r>   -2.2355    1.0000 </r>
       <r>   -2.2355    1.0000 </r>
       <r>   -2.2355    1.0000 </r>
       <r>    0.1109    1.0000 </r>
       <r>    0.1109    1.0000 </r>
       <r>    0.1109    1.0000 </r>
       <r>    0.1109    1.0000 </r>
       <r>    0.1109    1.0000 </r>
       <r>    0.1109    1.0000 </r>
       <r>    1.7557    1.0000 </r>
       <r>    1.7557    1.0000 </r>
       <r>    1.7557    1.0000 </r>
       <r>    2.3212    0.0000 </r>
       <r>    4.4231    0.0000 </r>
       <r>    4.4231    0.0000 </r>
       <r>    4.4231    0.0000 </r>
       <r>    4.5057    0.0000 </r>
       <r>    4.5057    0.0000 </r>
       <r>    4.5057    0.0000 </r>
       <r>    6.3972    0.0000 </r>
       <r>    6.3972    0.0000 </r>
       <r>    6.3972    0.0000 </r>
       <r>    9.1214    0.0000 </r>
       <r>   10.2573    0.0000 </r>
      </set>
      <set comment="kpoint 2">
       <r>   -9.0483    1.0000 </r>
       <r>   -8.6186    1.0000 </r>
       <r>   -8.6186    1.0000 </r>
       <r>   -8.6155    1.0000 </r>
       <r>   -6.3073    1.0000 </r>
       <r>   -6.3064    1.0000 </r>
       <r>   -6.3032    1.0000 </r>
       <r>   -6.1823    1.0000 </r>
       <r>   -6.1801    1.0000 </r>
       <r>   -6.1801    1.0000 </r>
       <r>   -6.1777    1.0000 </r>
       <r>   -6.1777    1.0000 </r>
       <r>   -6.1764    1.0000 </r>
       <r>   -6.1665    1.0000 </r>
       <r>   -6.1665    1.0000 </r>
       <r>   -6.1642    1.0000 </r>
       <r>   -6.0926    1.0000 </r>
       <r>   -6.0921    1.0000 </r>
       <r>   -6.0674    1.0000 </r>
       <r>   -6.0672    1.0000 </r>
       <r>   -6.0672    1.0000 </r>
       <r>   -5.6852    1.0000 </r>
       <r>   -5.6852    1.0000 </r>
       <r>   -5.6744    1.0000 </r>
       <r>   -2.2293    1.0000 </r>
       <r>   -2.2101    1.0000 </r>
       <r>   -2.2101    1.0000 </r>
       <r>    0.0518    1.0000 </r>
       <r>    0.1061    1.0000 </r>
       <r>    0.1061    1.0000 </r>
       <r>    0.1119    1.0000 </r>
       <r>    0.1119    1.0000 </r>
       <r>    0.1257    1.0000 </r>
       <r>    1.4609    1.0000 </r>
       <r>    1.7192    1.0000 </r>
       <r>    1.7482    1.0000 </r>
       <r>    2.5927    0.0000 </r>
       <r>    4.4467    0.0000 </r>
       <r>    4.4467    0.0000 </r>
       <r>    4.4607    0.0000 </r>
       <r>    4.5653    0.0000 </r>
       <r>    4.5653    0.0000 </r>
       <r>    4.5983    0.0000 </r>
       <r>    6.3599    0.0000 </r>
       <r>    6.4127    0.0000 </r>
       <r>    6.4517    0.0000 </r>
       <r>    9.2394    0.0000 </r>
       <r>   10.0354    0.0000 </r>
      </set>
      <set comment="kpoint 3">
       <r>   -9.0283    1.0000 </r>
       <r>   -8.6276    1.0000 </r>
       <r>   -8.6276    1.0000 </r>
       <r>   -8.6161    1.0000 </r>
       <r>   -6.3042    1.0000 </r>
       <r>   -6.3013    1.0000 </r>
       <r>   -6.2875    1.0000 </r>
       <r>   -6.1913    1.0000 </r>
       <r>   -6.1871    1.0000 </r>
       <r>   -6.1871    1.0000 </r>
       <r>   -6.1841    1.0000 </r>
       <r>   -6.1841    1.0000 </r>
       <r>   -6.1796    1.0000 </r>
       <r>   -6.1598    1.0000 </r>
       <r>   -6.1598    1.0000 </r>
       <r>   -6.1550    1.0000 </r>
       <r>   -6.0934    1.0000 </r>
       <r>   -6.0916    1.0000 </r>
       <r>   -6.0699    1.0000 </r>
       <r>   -6.0689    1.0000 </r>
       <r>   -6.0689    1.0000 </r>
       <r>   -5.7043    1.0000 </r>
       <r>   -5.7043    1.0000 </r>
       <r>   -5.6644    1.0000 </r>
       <r>   -2.2117    1.0000 </r>
       <r>   -2.1399    1.0000 </r>
       <r>   -2.1399    1.0000 </r>
       <r>   -0.0992    1.0000 </r>
       <r>    0.0887    1.0000 </r>
       <r>    0.0887    1.0000 </r>
       <r>    0.1242    1.0000 </r>
       <r>    0.1242    1.0000 </r>
       <r>    0.1698    1.0000 </r>
       <r>    0.9883    1.0000 </r>
       <r>    1.6114    1.0000 </r>
       <r>    1.7254    1.0000 </r>
       <r>    2.9962    0.0000 </r>
       <r>    4.5053    0.0000 </r>
       <r>    4.5375    0.0000 </r>
       <r>    4.5375    0.0000 </r>
       <r>    4.7167    0.0000 </r>
       <r>    4.7167    0.0000 </r>
       <r>    4.9161    0.0000 </r>
       <r>    6.2798    0.0000 </r>
       <r>    6.4585    0.0000 </r>
       <r>    6.6062    0.0000 </r>
       <r>    9.4730    0.0000 </r>
       <r>    9.5433    0.0000 </r>
      </set>
      <set comment="kpoint 4">
       <r>   -8.9965    1.0000 </r>
       <r>   -8.6415    1.0000 </r>
       <r>   -8.6415    1.0000 </r>
       <r>   -8.6178    1.0000 </r>
       <r>   -6.2994    1.0000 </r>
       <r>   -6.2935    1.0000 </r>
       <r>   -6.2609    1.0000 </r>
       <r>   -6.2004    1.0000 </r>
       <r>   -6.1956    1.0000 </r>
       <r>   -6.1956    1.0000 </r>
       <r>   -6.1934    1.0000 </r>
       <r>   -6.1934    1.0000 </r>
       <r>   -6.1846    1.0000 </r>
       <r>   -6.1518    1.0000 </r>
       <r>   -6.1518    1.0000 </r>
       <r>   -6.1448    1.0000 </r>
       <r>   -6.0951    1.0000 </r>
       <r>   -6.0908    1.0000 </r>
       <r>   -6.0735    1.0000 </r>
       <r>   -6.0714    1.0000 </r>
       <r>   -6.0714    1.0000 </r>
       <r>   -5.7314    1.0000 </r>
       <r>   -5.7314    1.0000 </r>
       <r>   -5.6522    1.0000 </r>
       <r>   -2.1856    1.0000 </r>
       <r>   -2.0406    1.0000 </r>
       <r>   -2.0406    1.0000 </r>
       <r>   -0.2847    1.0000 </r>
       <r>    0.0570    1.0000 </r>
       <r>    0.0570    1.0000 </r>
       <r>    0.1664    1.0000 </r>
       <r>    0.1664    1.0000 </r>
       <r>    0.2415    1.0000 </r>
       <r>    0.5023    1.0000 </r>
       <r>    1.4383    1.0000 </r>
       <r>    1.6858    1.0000 </r>
       <r>    3.3716    0.0000 </r>
       <r>    4.5630    0.0000 </r>
       <r>    4.6988    0.0000 </r>
       <r>    4.6988    0.0000 </r>
       <r>    4.9340    0.0000 </r>
       <r>    4.9340    0.0000 </r>
       <r>    5.3861    0.0000 </r>
       <r>    6.2162    0.0000 </r>
       <r>    6.5339    0.0000 </r>
       <r>    6.8292    0.0000 </r>
       <r>    8.7719    0.0000 </r>
       <r>    8.7720    0.0000 </r>
      </set>
      <set comment="kpoint 5">
       <r>   -8.9554    1.0000 </r>
       <r>   -8.6586    1.0000 </r>
       <r>   -8.6586    1.0000 </r>
       <r>   -8.6218    1.0000 </r>
       <r>   -6.2929    1.0000 </r>
       <r>   -6.2837    1.0000 </r>
       <r>   -6.2223    1.0000 </r>
       <r>   -6.2092    1.0000 </r>
       <r>   -6.2069    1.0000 </r>
       <r>   -6.2069    1.0000 </r>
       <r>   -6.2032    1.0000 </r>
       <r>   -6.2032    1.0000 </r>
       <r>   -6.1914    1.0000 </r>
       <r>   -6.1429    1.0000 </r>
       <r>   -6.1429    1.0000 </r>
       <r>   -6.1341    1.0000 </r>
       <r>   -6.0970    1.0000 </r>
       <r>   -6.0889    1.0000 </r>
       <r>   -6.0780    1.0000 </r>
       <r>   -6.0743    1.0000 </r>
       <r>   -6.0743    1.0000 </r>
       <r>   -5.7616    1.0000 </r>
       <r>   -5.7616    1.0000 </r>
       <r>   -5.6446    1.0000 </r>
       <r>   -2.1546    1.0000 </r>
       <r>   -1.9342    1.0000 </r>
       <r>   -1.9342    1.0000 </r>
       <r>   -0.4475    1.0000 </r>
       <r>    0.0147    1.0000 </r>
       <r>    0.0147    1.0000 </r>
       <r>    0.0320    1.0000 </r>
       <r>    0.2565    1.0000 </r>
       <r>    0.2565    1.0000 </r>
       <r>    0.3384    1.0000 </r>
       <r>    1.2113    1.0000 </r>
       <r>    1.6276    1.0000 </r>
       <r>    3.7005    0.0000 </r>
       <r>    4.6344    0.0000 </r>
       <r>    4.9010    0.0000 </r>
       <r>    4.9010    0.0000 </r>
       <r>    5.2064    0.0000 </r>
       <r>    5.2064    0.0000 </r>
       <r>    5.9219    0.0000 </r>
       <r>    6.2113    0.0000 </r>
       <r>    6.6374    0.0000 </r>
       <r>    7.0587    0.0000 </r>
       <r>    8.0818    0.0000 </r>
       <r>    8.0818    0.0000 </r>
      </set>
      <set comment="kpoint 6">
       <r>   -8.9080    1.0000 </r>
       <r>   -8.6769    1.0000 </r>
       <r>   -8.6769    1.0000 </r>
       <r>   -8.6294    1.0000 </r>
       <r>   -6.2851    1.0000 </r>
       <r>   -6.2733    1.0000 </r>
       <r>   -6.2192    1.0000 </r>
       <r>   -6.2192    1.0000 </r>
       <r>   -6.2170    1.0000 </r>
       <r>   -6.2130    1.0000 </r>
       <r>   -6.2130    1.0000 </r>
       <r>   -6.1998    1.0000 </r>
       <r>   -6.1726    1.0000 </r>
       <r>   -6.1334    1.0000 </r>
       <r>   -6.1334    1.0000 </r>
       <r>   -6.1233    1.0000 </r>
       <r>   -6.0984    1.0000 </r>
       <r>   -6.0846    1.0000 </r>
       <r>   -6.0828    1.0000 </r>
       <r>   -6.0775    1.0000 </r>
       <r>   -6.0775    1.0000 </r>
       <r>   -5.7907    1.0000 </r>
       <r>   -5.7907    1.0000 </r>
       <r>   -5.6482    1.0000 </r>
       <r>   -2.1192    1.0000 </r>
       <r>   -1.8409    1.0000 </r>
       <r>   -1.8409    1.0000 </r>
       <r>   -0.5465    1.0000 </r>
       <r>   -0.4086    1.0000 </r>
       <r>   -0.0322    1.0000 </r>
       <r>   -0.0322    1.0000 </r>
       <r>    0.4038    1.0000 </r>
       <r>    0.4038    1.0000 </r>
       <r>    0.4570    1.0000 </r>
       <r>    0.9463    1.0000 </r>
       <r>    1.5493    1.0000 </r>
       <r>    3.9850    0.0000 </r>
       <r>    4.7116    0.0000 </r>
       <r>    5.0750    0.0000 </r>
       <r>    5.0750    0.0000 </r>
       <r>    5.5382    0.0000 </r>
       <r>    5.5382    0.0000 </r>
       <r>    6.2828    0.0000 </r>
       <r>    6.4157    0.0000 </r>
       <r>    6.7675    0.0000 </r>
       <r>    7.2120    0.0000 </r>
       <r>    7.4935    0.0000 </r>
       <r>    7.4935    0.0000 </r>
      </set>
      <set comment="kpoint 7">
       <r>   -8.8576    1.0000 </r>
       <r>   -8.6940    1.0000 </r>
       <r>   -8.6940    1.0000 </r>
       <r>   -8.6419    1.0000 </r>
       <r>   -6.2757    1.0000 </r>
       <r>   -6.2633    1.0000 </r>
       <r>   -6.2300    1.0000 </r>
       <r>   -6.2300    1.0000 </r>
       <r>   -6.2236    1.0000 </r>
       <r>   -6.2225    1.0000 </r>
       <r>   -6.2225    1.0000 </r>
       <r>   -6.2096    1.0000 </r>
       <r>   -6.1234    1.0000 </r>
       <r>   -6.1234    1.0000 </r>
       <r>   -6.1216    1.0000 </r>
       <r>   -6.1134    1.0000 </r>
       <r>   -6.0995    1.0000 </r>
       <r>   -6.0876    1.0000 </r>
       <r>   -6.0813    1.0000 </r>
       <r>   -6.0813    1.0000 </r>
       <r>   -6.0688    1.0000 </r>
       <r>   -5.8155    1.0000 </r>
       <r>   -5.8155    1.0000 </r>
       <r>   -5.6695    1.0000 </r>
       <r>   -2.0721    1.0000 </r>
       <r>   -1.7723    1.0000 </r>
       <r>   -1.7723    1.0000 </r>
       <r>   -0.8097    1.0000 </r>
       <r>   -0.5609    1.0000 </r>
       <r>   -0.0766    1.0000 </r>
       <r>   -0.0766    1.0000 </r>
       <r>    0.5929    1.0000 </r>
       <r>    0.5996    1.0000 </r>
       <r>    0.5996    1.0000 </r>
       <r>    0.6613    1.0000 </r>
       <r>    1.4504    1.0000 </r>
       <r>    4.2318    0.0000 </r>
       <r>    4.7810    0.0000 </r>
       <r>    5.1219    0.0000 </r>
       <r>    5.1219    0.0000 </r>
       <r>    5.9363    0.0000 </r>
       <r>    5.9363    0.0000 </r>
       <r>    6.4327    0.0000 </r>
       <r>    6.7376    0.0000 </r>
       <r>    6.9235    0.0000 </r>
       <r>    7.1000    0.0000 </r>
       <r>    7.1000    0.0000 </r>
       <r>    7.2400    0.0000 </r>
      </set>
      <set comment="kpoint 8">
       <r>   -8.8077    1.0000 </r>
       <r>   -8.7081    1.0000 </r>
       <r>   -8.7081    1.0000 </r>
       <r>   -8.6608    1.0000 </r>
       <r>   -6.2654    1.0000 </r>
       <r>   -6.2543    1.0000 </r>
       <r>   -6.2379    1.0000 </r>
       <r>   -6.2379    1.0000 </r>
       <r>   -6.2311    1.0000 </r>
       <r>   -6.2311    1.0000 </r>
       <r>   -6.2294    1.0000 </r>
       <r>   -6.2202    1.0000 </r>
       <r>   -6.1138    1.0000 </r>
       <r>   -6.1138    1.0000 </r>
       <r>   -6.1054    1.0000 </r>
       <r>   -6.1006    1.0000 </r>
       <r>   -6.0999    1.0000 </r>
       <r>   -6.0919    1.0000 </r>
       <r>   -6.0857    1.0000 </r>
       <r>   -6.0857    1.0000 </r>
       <r>   -6.0125    1.0000 </r>
       <r>   -5.8345    1.0000 </r>
       <r>   -5.8345    1.0000 </r>
       <r>   -5.7117    1.0000 </r>
       <r>   -1.9976    1.0000 </r>
       <r>   -1.7294    1.0000 </r>
       <r>   -1.7294    1.0000 </r>
       <r>   -1.1630    1.0000 </r>
       <r>   -0.4903    1.0000 </r>
       <r>   -0.1127    1.0000 </r>
       <r>   -0.1127    1.0000 </r>
       <r>    0.3740    1.0000 </r>
       <r>    0.7409    1.0000 </r>
       <r>    0.8110    1.0000 </r>
       <r>    0.8110    1.0000 </r>
       <r>    1.3318    1.0000 </r>
       <r>    4.4446    0.0000 </r>
       <r>    4.8230    0.0000 </r>
       <r>    5.0022    0.0000 </r>
       <r>    5.0022    0.0000 </r>
       <r>    6.3925    0.0000 </r>
       <r>    6.3925    0.0000 </r>
       <r>    6.6535    0.0000 </r>
       <r>    6.8602    0.0000 </r>
       <r>    6.9447    0.0000 </r>
       <r>    6.9447    0.0000 </r>
       <r>    7.1058    0.0000 </r>
       <r>    7.1698    0.0000 </r>
      </set>
      <set comment="kpoint 9">
       <r>   -8.7612    1.0000 </r>
       <r>   -8.7173    1.0000 </r>
       <r>   -8.7173    1.0000 </r>
       <r>   -8.6868    1.0000 </r>
       <r>   -6.2544    1.0000 </r>
       <r>   -6.2468    1.0000 </r>
       <r>   -6.2422    1.0000 </r>
       <r>   -6.2422    1.0000 </r>
       <r>   -6.2376    1.0000 </r>
       <r>   -6.2376    1.0000 </r>
       <r>   -6.2347    1.0000 </r>
       <r>   -6.2314    1.0000 </r>
       <r>   -6.1050    1.0000 </r>
       <r>   -6.1050    1.0000 </r>
       <r>   -6.0998    1.0000 </r>
       <r>   -6.0996    1.0000 </r>
       <r>   -6.0966    1.0000 </r>
       <r>   -6.0954    1.0000 </r>
       <r>   -6.0910    1.0000 </r>
       <r>   -6.0910    1.0000 </r>
       <r>   -5.9332    1.0000 </r>
       <r>   -5.8464    1.0000 </r>
       <r>   -5.8464    1.0000 </r>
       <r>   -5.7737    1.0000 </r>
       <r>   -1.8777    1.0000 </r>
       <r>   -1.7072    1.0000 </r>
       <r>   -1.7072    1.0000 </r>
       <r>   -1.4616    1.0000 </r>
       <r>   -0.3462    1.0000 </r>
       <r>   -0.1361    1.0000 </r>
       <r>   -0.1361    1.0000 </r>
       <r>    0.1006    1.0000 </r>
       <r>    0.8950    1.0000 </r>
       <r>    0.9819    1.0000 </r>
       <r>    0.9819    1.0000 </r>
       <r>    1.1965    1.0000 </r>
       <r>    4.6202    0.0000 </r>
       <r>    4.8165    0.0000 </r>
       <r>    4.8271    0.0000 </r>
       <r>    4.8271    0.0000 </r>
       <r>    6.8855    0.0000 </r>
       <r>    6.8855    0.0000 </r>
       <r>    6.8987    0.0000 </r>
       <r>    6.9196    0.0000 </r>
       <r>    6.9372    0.0000 </r>
       <r>    6.9372    0.0000 </r>
       <r>    7.0821    0.0000 </r>
       <r>    7.3162    0.0000 </r>
      </set>
      <set comment="kpoint 10">
       <r>   -8.7204    1.0000 </r>
       <r>   -8.7204    1.0000 </r>
       <r>   -8.7204    1.0000 </r>
       <r>   -8.7204    1.0000 </r>
       <r>   -6.2429    1.0000 </r>
       <r>   -6.2429    1.0000 </r>
       <r>   -6.2429    1.0000 </r>
       <r>   -6.2429    1.0000 </r>
       <r>   -6.2404    1.0000 </r>
       <r>   -6.2404    1.0000 </r>
       <r>   -6.2404    1.0000 </r>
       <r>   -6.2404    1.0000 </r>
       <r>   -6.0979    1.0000 </r>
       <r>   -6.0979    1.0000 </r>
       <r>   -6.0979    1.0000 </r>
       <r>   -6.0979    1.0000 </r>
       <r>   -6.0967    1.0000 </r>
       <r>   -6.0967    1.0000 </r>
       <r>   -6.0967    1.0000 </r>
       <r>   -6.0967    1.0000 </r>
       <r>   -5.8503    1.0000 </r>
       <r>   -5.8503    1.0000 </r>
       <r>   -5.8503    1.0000 </r>
       <r>   -5.8503    1.0000 </r>
       <r>   -1.7005    1.0000 </r>
       <r>   -1.7005    1.0000 </r>
       <r>   -1.7005    1.0000 </r>
       <r>   -1.7005    1.0000 </r>
       <r>   -0.1442    1.0000 </r>
       <r>   -0.1442    1.0000 </r>
       <r>   -0.1442    1.0000 </r>
       <r>   -0.1442    1.0000 </r>
       <r>    1.0490    1.0000 </r>
       <r>    1.0490    1.0000 </r>
       <r>    1.0490    1.0000 </r>
       <r>    1.0490    1.0000 </r>
       <r>    4.7482    0.0000 </r>
       <r>    4.7482    0.0000 </r>
       <r>    4.7482    0.0000 </r>
       <r>    4.7482    0.0000 </r>
       <r>    6.9467    0.0000 </r>
       <r>    6.9467    0.0000 </r>
       <r>    6.9467    0.0000 </r>
       <r>    6.9467    0.0000 </r>
       <r>    7.3053    0.0000 </r>
       <r>    7.3053    0.0000 </r>
       <r>    7.3054    0.0000 </r>
       <r>    7.3059    0.0000 </r>
      </set>
      <set comment="kpoint 11">
       <r>   -8.7204    1.0000 </r>
       <r>   -8.7204    1.0000 </r>
       <r>   -8.7204    1.0000 </r>
       <r>   -8.7204    1.0000 </r>
       <r>   -6.2429    1.0000 </r>
       <r>   -6.2429    1.0000 </r>
       <r>   -6.2429    1.0000 </r>
       <r>   -6.2429    1.0000 </r>
       <r>   -6.2404    1.0000 </r>
       <r>   -6.2404    1.0000 </r>
       <r>   -6.2404    1.0000 </r>
       <r>   -6.2404    1.0000 </r>
       <r>   -6.0979    1.0000 </r>
       <r>   -6.0979    1.0000 </r>
       <r>   -6.0979    1.0000 </r>
       <r>   -6.0979    1.0000 </r>
       <r>   -6.0967    1.0000 </r>
       <r>   -6.0967    1.0000 </r>
       <r>   -6.0967    1.0000 </r>
       <r>   -6.0967    1.0000 </r>
       <r>   -5.8503    1.0000 </r>
       <r>   -5.8503    1.0000 </r>
       <r>   -5.8503    1.0000 </r>
       <r>   -5.8503    1.0000 </r>
       <r>   -1.7005    1.0000 </r>
       <r>   -1.7005    1.0000 </r>
       <r>   -1.7005    1.0000 </r>
       <r>   -1.7005    1.0000 </r>
       <r>   -0.1442    1.0000 </r>
       <r>   -0.1442    1.0000 </r>
       <r>   -0.1442    1.0000 </r>
       <r>   -0.1442    1.0000 </r>
       <r>    1.0490    1.0000 </r>
       <r>    1.0490    1.0000 </r>
       <r>    1.0490    1.0000 </r>
       <r>    1.0490    1.0000 </r>
       <r>    4.7482    0.0000 </r>
       <r>    4.7482    0.0000 </r>
       <r>    4.7482    0.0000 </r>
       <r>    4.7482    0.0000 </r>
       <r>    6.9467    0.0000 </r>
       <r>    6.9467    0.0000 </r>
       <r>    6.9467    0.0000 </r>
       <r>    6.9467    0.0000 </r>
       <r>    7.3053    0.0000 </r>
       <r>    7.3054    0.0000 </r>
       <r>    7.3056    0.0000 </r>
       <r>    7.3059    0.0000 </r>
      </set>
      <set comment="kpoint 12">
       <r>   -8.7297    1.0000 </r>
       <r>   -8.7297    1.0000 </r>
       <r>   -8.7112    1.0000 </r>
       <r>   -8.7112    1.0000 </r>
       <r>   -6.2459    1.0000 </r>
       <r>   -6.2459    1.0000 </r>
       <r>   -6.2419    1.0000 </r>
       <r>   -6.2419    1.0000 </r>
       <r>   -6.2403    1.0000 </r>
       <r>   -6.2403    1.0000 </r>
       <r>   -6.2387    1.0000 </r>
       <r>   -6.2387    1.0000 </r>
       <r>   -6.0994    1.0000 </r>
       <r>   -6.0994    1.0000 </r>
       <r>   -6.0989    1.0000 </r>
       <r>   -6.0989    1.0000 </r>
       <r>   -6.0956    1.0000 </r>
       <r>   -6.0956    1.0000 </r>
       <r>   -6.0953    1.0000 </r>
       <r>   -6.0953    1.0000 </r>
       <r>   -5.8701    1.0000 </r>
       <r>   -5.8701    1.0000 </r>
       <r>   -5.8296    1.0000 </r>
       <r>   -5.8296    1.0000 </r>
       <r>   -1.7575    1.0000 </r>
       <r>   -1.7575    1.0000 </r>
       <r>   -1.6541    1.0000 </r>
       <r>   -1.6541    1.0000 </r>
       <r>   -0.1886    1.0000 </r>
       <r>   -0.1886    1.0000 </r>
       <r>   -0.0757    1.0000 </r>
       <r>   -0.0757    1.0000 </r>
       <r>    1.0069    1.0000 </r>
       <r>    1.0069    1.0000 </r>
       <r>    1.0823    1.0000 </r>
       <r>    1.0823    1.0000 </r>
       <r>    4.7167    0.0000 </r>
       <r>    4.7167    0.0000 </r>
       <r>    4.7682    0.0000 </r>
       <r>    4.7682    0.0000 </r>
       <r>    6.9107    0.0000 </r>
       <r>    6.9107    0.0000 </r>
       <r>    6.9315    0.0000 </r>
       <r>    6.9315    0.0000 </r>
       <r>    7.2063    0.0000 </r>
       <r>    7.2063    0.0000 </r>
       <r>    7.3621    0.0000 </r>
       <r>    7.3631    0.0000 </r>
      </set>
      <set comment="kpoint 13">
       <r>   -8.7388    1.0000 </r>
       <r>   -8.7388    1.0000 </r>
       <r>   -8.7022    1.0000 </r>
       <r>   -8.7022    1.0000 </r>
       <r>   -6.2487    1.0000 </r>
       <r>   -6.2487    1.0000 </r>
       <r>   -6.2433    1.0000 </r>
       <r>   -6.2433    1.0000 </r>
       <r>   -6.2386    1.0000 </r>
       <r>   -6.2386    1.0000 </r>
       <r>   -6.2365    1.0000 </r>
       <r>   -6.2365    1.0000 </r>
       <r>   -6.1012    1.0000 </r>
       <r>   -6.1012    1.0000 </r>
       <r>   -6.1003    1.0000 </r>
       <r>   -6.1003    1.0000 </r>
       <r>   -6.0939    1.0000 </r>
       <r>   -6.0939    1.0000 </r>
       <r>   -6.0933    1.0000 </r>
       <r>   -6.0933    1.0000 </r>
       <r>   -5.8885    1.0000 </r>
       <r>   -5.8885    1.0000 </r>
       <r>   -5.8087    1.0000 </r>
       <r>   -5.8087    1.0000 </r>
       <r>   -1.8223    1.0000 </r>
       <r>   -1.8223    1.0000 </r>
       <r>   -1.6195    1.0000 </r>
       <r>   -1.6195    1.0000 </r>
       <r>   -0.2100    1.0000 </r>
       <r>   -0.2100    1.0000 </r>
       <r>    0.0158    1.0000 </r>
       <r>    0.0158    1.0000 </r>
       <r>    0.9574    1.0000 </r>
       <r>    0.9574    1.0000 </r>
       <r>    1.1058    1.0000 </r>
       <r>    1.1058    1.0000 </r>
       <r>    4.6694    0.0000 </r>
       <r>    4.6694    0.0000 </r>
       <r>    4.7813    0.0000 </r>
       <r>    4.7813    0.0000 </r>
       <r>    6.8440    0.0000 </r>
       <r>    6.8440    0.0000 </r>
       <r>    6.8445    0.0000 </r>
       <r>    6.8445    0.0000 </r>
       <r>    7.1561    0.0000 </r>
       <r>    7.1562    0.0000 </r>
       <r>    7.3913    0.0000 </r>
       <r>    7.3919    0.0000 </r>
      </set>
      <set comment="kpoint 14">
       <r>   -8.7472    1.0000 </r>
       <r>   -8.7472    1.0000 </r>
       <r>   -8.6938    1.0000 </r>
       <r>   -8.6938    1.0000 </r>
       <r>   -6.2513    1.0000 </r>
       <r>   -6.2513    1.0000 </r>
       <r>   -6.2449    1.0000 </r>
       <r>   -6.2449    1.0000 </r>
       <r>   -6.2375    1.0000 </r>
       <r>   -6.2375    1.0000 </r>
       <r>   -6.2338    1.0000 </r>
       <r>   -6.2338    1.0000 </r>
       <r>   -6.1030    1.0000 </r>
       <r>   -6.1030    1.0000 </r>
       <r>   -6.1014    1.0000 </r>
       <r>   -6.1014    1.0000 </r>
       <r>   -6.0923    1.0000 </r>
       <r>   -6.0923    1.0000 </r>
       <r>   -6.0912    1.0000 </r>
       <r>   -6.0912    1.0000 </r>
       <r>   -5.9052    1.0000 </r>
       <r>   -5.9052    1.0000 </r>
       <r>   -5.7881    1.0000 </r>
       <r>   -5.7881    1.0000 </r>
       <r>   -1.8908    1.0000 </r>
       <r>   -1.8908    1.0000 </r>
       <r>   -1.5956    1.0000 </r>
       <r>   -1.5956    1.0000 </r>
       <r>   -0.2115    1.0000 </r>
       <r>   -0.2115    1.0000 </r>
       <r>    0.1266    1.0000 </r>
       <r>    0.1266    1.0000 </r>
       <r>    0.9024    1.0000 </r>
       <r>    0.9024    1.0000 </r>
       <r>    1.1182    1.0000 </r>
       <r>    1.1182    1.0000 </r>
       <r>    4.6041    0.0000 </r>
       <r>    4.6041    0.0000 </r>
       <r>    4.7913    0.0000 </r>
       <r>    4.7913    0.0000 </r>
       <r>    6.7235    0.0000 </r>
       <r>    6.7235    0.0000 </r>
       <r>    6.7619    0.0000 </r>
       <r>    6.7619    0.0000 </r>
       <r>    7.1621    0.0000 </r>
       <r>    7.1622    0.0000 </r>
       <r>    7.4265    0.0000 </r>
       <r>    7.4267    0.0000 </r>
      </set>
      <set comment="kpoint 15">
       <r>   -8.7549    1.0000 </r>
       <r>   -8.7549    1.0000 </r>
       <r>   -8.6862    1.0000 </r>
       <r>   -8.6862    1.0000 </r>
       <r>   -6.2535    1.0000 </r>
       <r>   -6.2535    1.0000 </r>
       <r>   -6.2462    1.0000 </r>
       <r>   -6.2462    1.0000 </r>
       <r>   -6.2367    1.0000 </r>
       <r>   -6.2367    1.0000 </r>
       <r>   -6.2314    1.0000 </r>
       <r>   -6.2314    1.0000 </r>
       <r>   -6.1046    1.0000 </r>
       <r>   -6.1046    1.0000 </r>
       <r>   -6.1024    1.0000 </r>
       <r>   -6.1024    1.0000 </r>
       <r>   -6.0909    1.0000 </r>
       <r>   -6.0909    1.0000 </r>
       <r>   -6.0890    1.0000 </r>
       <r>   -6.0890    1.0000 </r>
       <r>   -5.9198    1.0000 </r>
       <r>   -5.9198    1.0000 </r>
       <r>   -5.7686    1.0000 </r>
       <r>   -5.7686    1.0000 </r>
       <r>   -1.9582    1.0000 </r>
       <r>   -1.9582    1.0000 </r>
       <r>   -1.5807    1.0000 </r>
       <r>   -1.5807    1.0000 </r>
       <r>   -0.1975    1.0000 </r>
       <r>   -0.1975    1.0000 </r>
       <r>    0.2514    1.0000 </r>
       <r>    0.2514    1.0000 </r>
       <r>    0.8443    1.0000 </r>
       <r>    0.8443    1.0000 </r>
       <r>    1.1186    1.0000 </r>
       <r>    1.1186    1.0000 </r>
       <r>    4.5231    0.0000 </r>
       <r>    4.5231    0.0000 </r>
       <r>    4.8006    0.0000 </r>
       <r>    4.8006    0.0000 </r>
       <r>    6.6137    0.0000 </r>
       <r>    6.6137    0.0000 </r>
       <r>    6.6747    0.0000 </r>
       <r>    6.6747    0.0000 </r>
       <r>    7.1972    0.0000 </r>
       <r>    7.1972    0.0000 </r>
       <r>    7.4698    0.0000 </r>
       <r>    7.4714    0.0000 </r>
      </set>
      <set comment="kpoint 16">
       <r>   -8.7615    1.0000 </r>
       <r>   -8.7615    1.0000 </r>
       <r>   -8.6797    1.0000 </r>
       <r>   -8.6797    1.0000 </r>
       <r>   -6.2555    1.0000 </r>
       <r>   -6.2555    1.0000 </r>
       <r>   -6.2475    1.0000 </r>
       <r>   -6.2475    1.0000 </r>
       <r>   -6.2360    1.0000 </r>
       <r>   -6.2360    1.0000 </r>
       <r>   -6.2293    1.0000 </r>
       <r>   -6.2293    1.0000 </r>
       <r>   -6.1060    1.0000 </r>
       <r>   -6.1060    1.0000 </r>
       <r>   -6.1031    1.0000 </r>
       <r>   -6.1031    1.0000 </r>
       <r>   -6.0897    1.0000 </r>
       <r>   -6.0897    1.0000 </r>
       <r>   -6.0869    1.0000 </r>
       <r>   -6.0869    1.0000 </r>
       <r>   -5.9322    1.0000 </r>
       <r>   -5.9322    1.0000 </r>
       <r>   -5.7511    1.0000 </r>
       <r>   -5.7511    1.0000 </r>
       <r>   -2.0200    1.0000 </r>
       <r>   -2.0200    1.0000 </r>
       <r>   -1.5722    1.0000 </r>
       <r>   -1.5722    1.0000 </r>
       <r>   -0.1730    1.0000 </r>
       <r>   -0.1730    1.0000 </r>
       <r>    0.3839    1.0000 </r>
       <r>    0.3839    1.0000 </r>
       <r>    0.7860    1.0000 </r>
       <r>    0.7860    1.0000 </r>
       <r>    1.1055    1.0000 </r>
       <r>    1.1055    1.0000 </r>
       <r>    4.4330    0.0000 </r>
       <r>    4.4330    0.0000 </r>
       <r>    4.8101    0.0000 </r>
       <r>    4.8101    0.0000 </r>
       <r>    6.5274    0.0000 </r>
       <r>    6.5274    0.0000 </r>
       <r>    6.5919    0.0000 </r>
       <r>    6.5919    0.0000 </r>
       <r>    7.2512    0.0000 </r>
       <r>    7.2512    0.0000 </r>
       <r>    7.5163    0.0000 </r>
       <r>    7.5166    0.0000 </r>
      </set>
      <set comment="kpoint 17">
       <r>   -8.7669    1.0000 </r>
       <r>   -8.7669    1.0000 </r>
       <r>   -8.6744    1.0000 </r>
       <r>   -8.6744    1.0000 </r>
       <r>   -6.2570    1.0000 </r>
       <r>   -6.2570    1.0000 </r>
       <r>   -6.2487    1.0000 </r>
       <r>   -6.2487    1.0000 </r>
       <r>   -6.2355    1.0000 </r>
       <r>   -6.2355    1.0000 </r>
       <r>   -6.2276    1.0000 </r>
       <r>   -6.2276    1.0000 </r>
       <r>   -6.1073    1.0000 </r>
       <r>   -6.1073    1.0000 </r>
       <r>   -6.1035    1.0000 </r>
       <r>   -6.1035    1.0000 </r>
       <r>   -6.0886    1.0000 </r>
       <r>   -6.0886    1.0000 </r>
       <r>   -6.0850    1.0000 </r>
       <r>   -6.0850    1.0000 </r>
       <r>   -5.9421    1.0000 </r>
       <r>   -5.9421    1.0000 </r>
       <r>   -5.7363    1.0000 </r>
       <r>   -5.7363    1.0000 </r>
       <r>   -2.0723    1.0000 </r>
       <r>   -2.0723    1.0000 </r>
       <r>   -1.5681    1.0000 </r>
       <r>   -1.5681    1.0000 </r>
       <r>   -0.1435    1.0000 </r>
       <r>   -0.1435    1.0000 </r>
       <r>    0.5170    1.0000 </r>
       <r>    0.5170    1.0000 </r>
       <r>    0.7317    1.0000 </r>
       <r>    0.7317    1.0000 </r>
       <r>    1.0776    1.0000 </r>
       <r>    1.0776    1.0000 </r>
       <r>    4.3446    0.0000 </r>
       <r>    4.3446    0.0000 </r>
       <r>    4.8196    0.0000 </r>
       <r>    4.8196    0.0000 </r>
       <r>    6.4650    0.0000 </r>
       <r>    6.4650    0.0000 </r>
       <r>    6.5203    0.0000 </r>
       <r>    6.5203    0.0000 </r>
       <r>    7.3186    0.0000 </r>
       <r>    7.3187    0.0000 </r>
       <r>    7.5611    0.0000 </r>
       <r>    7.5646    0.0000 </r>
      </set>
      <set comment="kpoint 18">
       <r>   -8.7709    1.0000 </r>
       <r>   -8.7709    1.0000 </r>
       <r>   -8.6705    1.0000 </r>
       <r>   -8.6705    1.0000 </r>
       <r>   -6.2581    1.0000 </r>
       <r>   -6.2581    1.0000 </r>
       <r>   -6.2495    1.0000 </r>
       <r>   -6.2495    1.0000 </r>
       <r>   -6.2352    1.0000 </r>
       <r>   -6.2352    1.0000 </r>
       <r>   -6.2263    1.0000 </r>
       <r>   -6.2263    1.0000 </r>
       <r>   -6.1082    1.0000 </r>
       <r>   -6.1082    1.0000 </r>
       <r>   -6.1039    1.0000 </r>
       <r>   -6.1039    1.0000 </r>
       <r>   -6.0878    1.0000 </r>
       <r>   -6.0878    1.0000 </r>
       <r>   -6.0836    1.0000 </r>
       <r>   -6.0836    1.0000 </r>
       <r>   -5.9494    1.0000 </r>
       <r>   -5.9494    1.0000 </r>
       <r>   -5.7252    1.0000 </r>
       <r>   -5.7252    1.0000 </r>
       <r>   -2.1120    1.0000 </r>
       <r>   -2.1120    1.0000 </r>
       <r>   -1.5664    1.0000 </r>
       <r>   -1.5664    1.0000 </r>
       <r>   -0.1152    1.0000 </r>
       <r>   -0.1152    1.0000 </r>
       <r>    0.6435    1.0000 </r>
       <r>    0.6435    1.0000 </r>
       <r>    0.6864    1.0000 </r>
       <r>    0.6864    1.0000 </r>
       <r>    1.0339    1.0000 </r>
       <r>    1.0339    1.0000 </r>
       <r>    4.2700    0.0000 </r>
       <r>    4.2700    0.0000 </r>
       <r>    4.8280    0.0000 </r>
       <r>    4.8280    0.0000 </r>
       <r>    6.4237    0.0000 </r>
       <r>    6.4237    0.0000 </r>
       <r>    6.4652    0.0000 </r>
       <r>    6.4652    0.0000 </r>
       <r>    7.3930    0.0000 </r>
       <r>    7.3932    0.0000 </r>
       <r>    7.5970    0.0000 </r>
       <r>    7.6001    0.0000 </r>
      </set>
      <set comment="kpoint 19">
       <r>   -8.7733    1.0000 </r>
       <r>   -8.7733    1.0000 </r>
       <r>   -8.6681    1.0000 </r>
       <r>   -8.6681    1.0000 </r>
       <r>   -6.2587    1.0000 </r>
       <r>   -6.2587    1.0000 </r>
       <r>   -6.2501    1.0000 </r>
       <r>   -6.2501    1.0000 </r>
       <r>   -6.2350    1.0000 </r>
       <r>   -6.2350    1.0000 </r>
       <r>   -6.2255    1.0000 </r>
       <r>   -6.2255    1.0000 </r>
       <r>   -6.1088    1.0000 </r>
       <r>   -6.1088    1.0000 </r>
       <r>   -6.1040    1.0000 </r>
       <r>   -6.1040    1.0000 </r>
       <r>   -6.0873    1.0000 </r>
       <r>   -6.0873    1.0000 </r>
       <r>   -6.0826    1.0000 </r>
       <r>   -6.0826    1.0000 </r>
       <r>   -5.9538    1.0000 </r>
       <r>   -5.9538    1.0000 </r>
       <r>   -5.7182    1.0000 </r>
       <r>   -5.7182    1.0000 </r>
       <r>   -2.1367    1.0000 </r>
       <r>   -2.1367    1.0000 </r>
       <r>   -1.5659    1.0000 </r>
       <r>   -1.5659    1.0000 </r>
       <r>   -0.0945    1.0000 </r>
       <r>   -0.0945    1.0000 </r>
       <r>    0.6557    1.0000 </r>
       <r>    0.6557    1.0000 </r>
       <r>    0.7538    1.0000 </r>
       <r>    0.7538    1.0000 </r>
       <r>    0.9768    1.0000 </r>
       <r>    0.9768    1.0000 </r>
       <r>    4.2201    0.0000 </r>
       <r>    4.2201    0.0000 </r>
       <r>    4.8339    0.0000 </r>
       <r>    4.8339    0.0000 </r>
       <r>    6.4004    0.0000 </r>
       <r>    6.4004    0.0000 </r>
       <r>    6.4304    0.0000 </r>
       <r>    6.4304    0.0000 </r>
       <r>    7.4645    0.0000 </r>
       <r>    7.4650    0.0000 </r>
       <r>    7.6216    0.0000 </r>
       <r>    7.6251    0.0000 </r>
      </set>
      <set comment="kpoint 20">
       <r>   -8.7741    1.0000 </r>
       <r>   -8.7741    1.0000 </r>
       <r>   -8.6673    1.0000 </r>
       <r>   -8.6673    1.0000 </r>
       <r>   -6.2588    1.0000 </r>
       <r>   -6.2588    1.0000 </r>
       <r>   -6.2502    1.0000 </r>
       <r>   -6.2502    1.0000 </r>
       <r>   -6.2349    1.0000 </r>
       <r>   -6.2349    1.0000 </r>
       <r>   -6.2252    1.0000 </r>
       <r>   -6.2252    1.0000 </r>
       <r>   -6.1089    1.0000 </r>
       <r>   -6.1089    1.0000 </r>
       <r>   -6.1041    1.0000 </r>
       <r>   -6.1041    1.0000 </r>
       <r>   -6.0871    1.0000 </r>
       <r>   -6.0871    1.0000 </r>
       <r>   -6.0822    1.0000 </r>
       <r>   -6.0822    1.0000 </r>
       <r>   -5.9552    1.0000 </r>
       <r>   -5.9552    1.0000 </r>
       <r>   -5.7158    1.0000 </r>
       <r>   -5.7158    1.0000 </r>
       <r>   -2.1450    1.0000 </r>
       <r>   -2.1450    1.0000 </r>
       <r>   -1.5658    1.0000 </r>
       <r>   -1.5658    1.0000 </r>
       <r>   -0.0869    1.0000 </r>
       <r>   -0.0869    1.0000 </r>
       <r>    0.6448    1.0000 </r>
       <r>    0.6448    1.0000 </r>
       <r>    0.8142    1.0000 </r>
       <r>    0.8142    1.0000 </r>
       <r>    0.9347    1.0000 </r>
       <r>    0.9347    1.0000 </r>
       <r>    4.2026    0.0000 </r>
       <r>    4.2026    0.0000 </r>
       <r>    4.8360    0.0000 </r>
       <r>    4.8360    0.0000 </r>
       <r>    6.3928    0.0000 </r>
       <r>    6.3928    0.0000 </r>
       <r>    6.4185    0.0000 </r>
       <r>    6.4185    0.0000 </r>
       <r>    7.5042    0.0000 </r>
       <r>    7.5043    0.0000 </r>
       <r>    7.6025    0.0000 </r>
       <r>    7.6046    0.0000 </r>
      </set>
      <set comment="kpoint 21">
       <r>   -8.7741    1.0000 </r>
       <r>   -8.7741    1.0000 </r>
       <r>   -8.6673    1.0000 </r>
       <r>   -8.6673    1.0000 </r>
       <r>   -6.2588    1.0000 </r>
       <r>   -6.2588    1.0000 </r>
       <r>   -6.2502    1.0000 </r>
       <r>   -6.2502    1.0000 </r>
       <r>   -6.2349    1.0000 </r>
       <r>   -6.2349    1.0000 </r>
       <r>   -6.2252    1.0000 </r>
       <r>   -6.2252    1.0000 </r>
       <r>   -6.1089    1.0000 </r>
       <r>   -6.1089    1.0000 </r>
       <r>   -6.1041    1.0000 </r>
       <r>   -6.1041    1.0000 </r>
       <r>   -6.0871    1.0000 </r>
       <r>   -6.0871    1.0000 </r>
       <r>   -6.0822    1.0000 </r>
       <r>   -6.0822    1.0000 </r>
       <r>   -5.9552    1.0000 </r>
       <r>   -5.9552    1.0000 </r>
       <r>   -5.7158    1.0000 </r>
       <r>   -5.7158    1.0000 </r>
       <r>   -2.1450    1.0000 </r>
       <r>   -2.1450    1.0000 </r>
       <r>   -1.5658    1.0000 </r>
       <r>   -1.5658    1.0000 </r>
       <r>   -0.0869    1.0000 </r>
       <r>   -0.0869    1.0000 </r>
       <r>    0.6448    1.0000 </r>
       <r>    0.6448    1.0000 </r>
       <r>    0.8142    1.0000 </r>
       <r>    0.8142    1.0000 </r>
       <r>    0.9347    1.0000 </r>
       <r>    0.9347    1.0000 </r>
       <r>    4.2026    0.0000 </r>
       <r>    4.2026    0.0000 </r>
       <r>    4.8360    0.0000 </r>
       <r>    4.8360    0.0000 </r>
       <r>    6.3928    0.0000 </r>
       <r>    6.3928    0.0000 </r>
       <r>    6.4185    0.0000 </r>
       <r>    6.4185    0.0000 </r>
       <r>    7.5041    0.0000 </r>
       <r>    7.5050    0.0000 </r>
       <r>    7.6056    0.0000 </r>
       <r>    7.6150    0.0000 </r>
      </set>
      <set comment="kpoint 22">
       <r>   -8.7782    1.0000 </r>
       <r>   -8.7650    1.0000 </r>
       <r>   -8.6697    1.0000 </r>
       <r>   -8.6694    1.0000 </r>
       <r>   -6.2606    1.0000 </r>
       <r>   -6.2572    1.0000 </r>
       <r>   -6.2524    1.0000 </r>
       <r>   -6.2485    1.0000 </r>
       <r>   -6.2359    1.0000 </r>
       <r>   -6.2358    1.0000 </r>
       <r>   -6.2265    1.0000 </r>
       <r>   -6.2264    1.0000 </r>
       <r>   -6.1086    1.0000 </r>
       <r>   -6.1068    1.0000 </r>
       <r>   -6.1035    1.0000 </r>
       <r>   -6.1034    1.0000 </r>
       <r>   -6.0870    1.0000 </r>
       <r>   -6.0869    1.0000 </r>
       <r>   -6.0828    1.0000 </r>
       <r>   -6.0819    1.0000 </r>
       <r>   -5.9606    1.0000 </r>
       <r>   -5.9377    1.0000 </r>
       <r>   -5.7203    1.0000 </r>
       <r>   -5.7195    1.0000 </r>
       <r>   -2.1504    1.0000 </r>
       <r>   -2.1488    1.0000 </r>
       <r>   -1.6326    1.0000 </r>
       <r>   -1.5640    1.0000 </r>
       <r>   -0.0567    1.0000 </r>
       <r>   -0.0533    1.0000 </r>
       <r>    0.6671    1.0000 </r>
       <r>    0.6679    1.0000 </r>
       <r>    0.7654    1.0000 </r>
       <r>    0.8664    1.0000 </r>
       <r>    0.9186    1.0000 </r>
       <r>    0.9708    1.0000 </r>
       <r>    4.1314    0.0000 </r>
       <r>    4.2223    0.0000 </r>
       <r>    4.7918    0.0000 </r>
       <r>    4.7935    0.0000 </r>
       <r>    6.4050    0.0000 </r>
       <r>    6.4242    0.0000 </r>
       <r>    6.4275    0.0000 </r>
       <r>    6.4580    0.0000 </r>
       <r>    7.4374    0.0000 </r>
       <r>    7.5190    0.0000 </r>
       <r>    7.6300    0.0000 </r>
       <r>    7.6365    0.0000 </r>
      </set>
      <set comment="kpoint 23">
       <r>   -8.7819    1.0000 </r>
       <r>   -8.7562    1.0000 </r>
       <r>   -8.6725    1.0000 </r>
       <r>   -8.6713    1.0000 </r>
       <r>   -6.2620    1.0000 </r>
       <r>   -6.2557    1.0000 </r>
       <r>   -6.2544    1.0000 </r>
       <r>   -6.2469    1.0000 </r>
       <r>   -6.2369    1.0000 </r>
       <r>   -6.2367    1.0000 </r>
       <r>   -6.2278    1.0000 </r>
       <r>   -6.2275    1.0000 </r>
       <r>   -6.1082    1.0000 </r>
       <r>   -6.1046    1.0000 </r>
       <r>   -6.1032    1.0000 </r>
       <r>   -6.1029    1.0000 </r>
       <r>   -6.0867    1.0000 </r>
       <r>   -6.0865    1.0000 </r>
       <r>   -6.0835    1.0000 </r>
       <r>   -6.0817    1.0000 </r>
       <r>   -5.9655    1.0000 </r>
       <r>   -5.9200    1.0000 </r>
       <r>   -5.7261    1.0000 </r>
       <r>   -5.7227    1.0000 </r>
       <r>   -2.1555    1.0000 </r>
       <r>   -2.1489    1.0000 </r>
       <r>   -1.6961    1.0000 </r>
       <r>   -1.5629    1.0000 </r>
       <r>   -0.0302    1.0000 </r>
       <r>   -0.0164    1.0000 </r>
       <r>    0.6890    1.0000 </r>
       <r>    0.6916    1.0000 </r>
       <r>    0.7112    1.0000 </r>
       <r>    0.9030    1.0000 </r>
       <r>    0.9067    1.0000 </r>
       <r>    1.0178    1.0000 </r>
       <r>    4.0622    0.0000 </r>
       <r>    4.2440    0.0000 </r>
       <r>    4.7448    0.0000 </r>
       <r>    4.7499    0.0000 </r>
       <r>    6.4164    0.0000 </r>
       <r>    6.4304    0.0000 </r>
       <r>    6.4423    0.0000 </r>
       <r>    6.5237    0.0000 </r>
       <r>    7.3725    0.0000 </r>
       <r>    7.5268    0.0000 </r>
       <r>    7.6226    0.0000 </r>
       <r>    7.6501    0.0000 </r>
      </set>
      <set comment="kpoint 24">
       <r>   -8.7851    1.0000 </r>
       <r>   -8.7477    1.0000 </r>
       <r>   -8.6757    1.0000 </r>
       <r>   -8.6730    1.0000 </r>
       <r>   -6.2632    1.0000 </r>
       <r>   -6.2562    1.0000 </r>
       <r>   -6.2542    1.0000 </r>
       <r>   -6.2453    1.0000 </r>
       <r>   -6.2380    1.0000 </r>
       <r>   -6.2374    1.0000 </r>
       <r>   -6.2291    1.0000 </r>
       <r>   -6.2286    1.0000 </r>
       <r>   -6.1078    1.0000 </r>
       <r>   -6.1031    1.0000 </r>
       <r>   -6.1025    1.0000 </r>
       <r>   -6.1025    1.0000 </r>
       <r>   -6.0866    1.0000 </r>
       <r>   -6.0861    1.0000 </r>
       <r>   -6.0842    1.0000 </r>
       <r>   -6.0816    1.0000 </r>
       <r>   -5.9698    1.0000 </r>
       <r>   -5.9022    1.0000 </r>
       <r>   -5.7333    1.0000 </r>
       <r>   -5.7257    1.0000 </r>
       <r>   -2.1601    1.0000 </r>
       <r>   -2.1451    1.0000 </r>
       <r>   -1.7560    1.0000 </r>
       <r>   -1.5622    1.0000 </r>
       <r>   -0.0075    1.0000 </r>
       <r>    0.0235    1.0000 </r>
       <r>    0.6546    1.0000 </r>
       <r>    0.7104    1.0000 </r>
       <r>    0.7152    1.0000 </r>
       <r>    0.8961    1.0000 </r>
       <r>    0.9268    1.0000 </r>
       <r>    1.0711    1.0000 </r>
       <r>    3.9967    0.0000 </r>
       <r>    4.2677    0.0000 </r>
       <r>    4.6977    0.0000 </r>
       <r>    4.7060    0.0000 </r>
       <r>    6.4268    0.0000 </r>
       <r>    6.4369    0.0000 </r>
       <r>    6.4608    0.0000 </r>
       <r>    6.5894    0.0000 </r>
       <r>    7.3112    0.0000 </r>
       <r>    7.5310    0.0000 </r>
       <r>    7.6112    0.0000 </r>
       <r>    7.6571    0.0000 </r>
      </set>
      <set comment="kpoint 25">
       <r>   -8.7879    1.0000 </r>
       <r>   -8.7395    1.0000 </r>
       <r>   -8.6794    1.0000 </r>
       <r>   -8.6745    1.0000 </r>
       <r>   -6.2641    1.0000 </r>
       <r>   -6.2578    1.0000 </r>
       <r>   -6.2526    1.0000 </r>
       <r>   -6.2437    1.0000 </r>
       <r>   -6.2391    1.0000 </r>
       <r>   -6.2380    1.0000 </r>
       <r>   -6.2305    1.0000 </r>
       <r>   -6.2295    1.0000 </r>
       <r>   -6.1074    1.0000 </r>
       <r>   -6.1032    1.0000 </r>
       <r>   -6.1021    1.0000 </r>
       <r>   -6.1005    1.0000 </r>
       <r>   -6.0864    1.0000 </r>
       <r>   -6.0855    1.0000 </r>
       <r>   -6.0850    1.0000 </r>
       <r>   -6.0815    1.0000 </r>
       <r>   -5.9735    1.0000 </r>
       <r>   -5.8845    1.0000 </r>
       <r>   -5.7417    1.0000 </r>
       <r>   -5.7282    1.0000 </r>
       <r>   -2.1641    1.0000 </r>
       <r>   -2.1371    1.0000 </r>
       <r>   -1.8121    1.0000 </r>
       <r>   -1.5619    1.0000 </r>
       <r>    0.0113    1.0000 </r>
       <r>    0.0661    1.0000 </r>
       <r>    0.5969    1.0000 </r>
       <r>    0.7311    1.0000 </r>
       <r>    0.7376    1.0000 </r>
       <r>    0.8856    1.0000 </r>
       <r>    0.9433    1.0000 </r>
       <r>    1.1240    1.0000 </r>
       <r>    3.9365    0.0000 </r>
       <r>    4.2936    0.0000 </r>
       <r>    4.6530    0.0000 </r>
       <r>    4.6620    0.0000 </r>
       <r>    6.4362    0.0000 </r>
       <r>    6.4432    0.0000 </r>
       <r>    6.4808    0.0000 </r>
       <r>    6.6550    0.0000 </r>
       <r>    7.2522    0.0000 </r>
       <r>    7.5320    0.0000 </r>
       <r>    7.5965    0.0000 </r>
       <r>    7.6646    0.0000 </r>
      </set>
      <set comment="kpoint 26">
       <r>   -8.7902    1.0000 </r>
       <r>   -8.7317    1.0000 </r>
       <r>   -8.6834    1.0000 </r>
       <r>   -8.6758    1.0000 </r>
       <r>   -6.2649    1.0000 </r>
       <r>   -6.2591    1.0000 </r>
       <r>   -6.2511    1.0000 </r>
       <r>   -6.2422    1.0000 </r>
       <r>   -6.2402    1.0000 </r>
       <r>   -6.2387    1.0000 </r>
       <r>   -6.2317    1.0000 </r>
       <r>   -6.2303    1.0000 </r>
       <r>   -6.1069    1.0000 </r>
       <r>   -6.1034    1.0000 </r>
       <r>   -6.1019    1.0000 </r>
       <r>   -6.0985    1.0000 </r>
       <r>   -6.0862    1.0000 </r>
       <r>   -6.0859    1.0000 </r>
       <r>   -6.0849    1.0000 </r>
       <r>   -6.0816    1.0000 </r>
       <r>   -5.9765    1.0000 </r>
       <r>   -5.8671    1.0000 </r>
       <r>   -5.7515    1.0000 </r>
       <r>   -5.7303    1.0000 </r>
       <r>   -2.1676    1.0000 </r>
       <r>   -2.1247    1.0000 </r>
       <r>   -1.8642    1.0000 </r>
       <r>   -1.5618    1.0000 </r>
       <r>    0.0263    1.0000 </r>
       <r>    0.1113    1.0000 </r>
       <r>    0.5390    1.0000 </r>
       <r>    0.7510    1.0000 </r>
       <r>    0.7579    1.0000 </r>
       <r>    0.8746    1.0000 </r>
       <r>    0.9552    1.0000 </r>
       <r>    1.1720    1.0000 </r>
       <r>    3.8838    0.0000 </r>
       <r>    4.3217    0.0000 </r>
       <r>    4.6132    0.0000 </r>
       <r>    4.6184    0.0000 </r>
       <r>    6.4443    0.0000 </r>
       <r>    6.4491    0.0000 </r>
       <r>    6.5004    0.0000 </r>
       <r>    6.7200    0.0000 </r>
       <r>    7.1950    0.0000 </r>
       <r>    7.5324    0.0000 </r>
       <r>    7.5820    0.0000 </r>
       <r>    7.6760    0.0000 </r>
      </set>
      <set comment="kpoint 27">
       <r>   -8.7920    1.0000 </r>
       <r>   -8.7242    1.0000 </r>
       <r>   -8.6879    1.0000 </r>
       <r>   -8.6767    1.0000 </r>
       <r>   -6.2655    1.0000 </r>
       <r>   -6.2603    1.0000 </r>
       <r>   -6.2496    1.0000 </r>
       <r>   -6.2414    1.0000 </r>
       <r>   -6.2407    1.0000 </r>
       <r>   -6.2390    1.0000 </r>
       <r>   -6.2330    1.0000 </r>
       <r>   -6.2308    1.0000 </r>
       <r>   -6.1064    1.0000 </r>
       <r>   -6.1037    1.0000 </r>
       <r>   -6.1017    1.0000 </r>
       <r>   -6.0967    1.0000 </r>
       <r>   -6.0868    1.0000 </r>
       <r>   -6.0860    1.0000 </r>
       <r>   -6.0842    1.0000 </r>
       <r>   -6.0817    1.0000 </r>
       <r>   -5.9789    1.0000 </r>
       <r>   -5.8500    1.0000 </r>
       <r>   -5.7625    1.0000 </r>
       <r>   -5.7319    1.0000 </r>
       <r>   -2.1703    1.0000 </r>
       <r>   -2.1080    1.0000 </r>
       <r>   -1.9123    1.0000 </r>
       <r>   -1.5619    1.0000 </r>
       <r>    0.0378    1.0000 </r>
       <r>    0.1589    1.0000 </r>
       <r>    0.4814    1.0000 </r>
       <r>    0.7700    1.0000 </r>
       <r>    0.7750    1.0000 </r>
       <r>    0.8628    1.0000 </r>
       <r>    0.9639    1.0000 </r>
       <r>    1.2122    1.0000 </r>
       <r>    3.8403    0.0000 </r>
       <r>    4.3520    0.0000 </r>
       <r>    4.5757    0.0000 </r>
       <r>    4.5800    0.0000 </r>
       <r>    6.4509    0.0000 </r>
       <r>    6.4540    0.0000 </r>
       <r>    6.5176    0.0000 </r>
       <r>    6.7840    0.0000 </r>
       <r>    7.1386    0.0000 </r>
       <r>    7.5317    0.0000 </r>
       <r>    7.5686    0.0000 </r>
       <r>    7.6858    0.0000 </r>
      </set>
      <set comment="kpoint 28">
       <r>   -8.7933    1.0000 </r>
       <r>   -8.7171    1.0000 </r>
       <r>   -8.6929    1.0000 </r>
       <r>   -8.6774    1.0000 </r>
       <r>   -6.2658    1.0000 </r>
       <r>   -6.2611    1.0000 </r>
       <r>   -6.2482    1.0000 </r>
       <r>   -6.2427    1.0000 </r>
       <r>   -6.2394    1.0000 </r>
       <r>   -6.2393    1.0000 </r>
       <r>   -6.2343    1.0000 </r>
       <r>   -6.2311    1.0000 </r>
       <r>   -6.1060    1.0000 </r>
       <r>   -6.1041    1.0000 </r>
       <r>   -6.1017    1.0000 </r>
       <r>   -6.0951    1.0000 </r>
       <r>   -6.0878    1.0000 </r>
       <r>   -6.0858    1.0000 </r>
       <r>   -6.0837    1.0000 </r>
       <r>   -6.0820    1.0000 </r>
       <r>   -5.9806    1.0000 </r>
       <r>   -5.8335    1.0000 </r>
       <r>   -5.7747    1.0000 </r>
       <r>   -5.7330    1.0000 </r>
       <r>   -2.1723    1.0000 </r>
       <r>   -2.0867    1.0000 </r>
       <r>   -1.9561    1.0000 </r>
       <r>   -1.5619    1.0000 </r>
       <r>    0.0458    1.0000 </r>
       <r>    0.2086    1.0000 </r>
       <r>    0.4245    1.0000 </r>
       <r>    0.7880    1.0000 </r>
       <r>    0.7882    1.0000 </r>
       <r>    0.8501    1.0000 </r>
       <r>    0.9698    1.0000 </r>
       <r>    1.2424    1.0000 </r>
       <r>    3.8078    0.0000 </r>
       <r>    4.3844    0.0000 </r>
       <r>    4.5342    0.0000 </r>
       <r>    4.5552    0.0000 </r>
       <r>    6.4558    0.0000 </r>
       <r>    6.4577    0.0000 </r>
       <r>    6.5310    0.0000 </r>
       <r>    6.8466    0.0000 </r>
       <r>    7.0823    0.0000 </r>
       <r>    7.5327    0.0000 </r>
       <r>    7.5567    0.0000 </r>
       <r>    7.6953    0.0000 </r>
      </set>
      <set comment="kpoint 29">
       <r>   -8.7940    1.0000 </r>
       <r>   -8.7104    1.0000 </r>
       <r>   -8.6983    1.0000 </r>
       <r>   -8.6778    1.0000 </r>
       <r>   -6.2660    1.0000 </r>
       <r>   -6.2615    1.0000 </r>
       <r>   -6.2467    1.0000 </r>
       <r>   -6.2440    1.0000 </r>
       <r>   -6.2395    1.0000 </r>
       <r>   -6.2381    1.0000 </r>
       <r>   -6.2355    1.0000 </r>
       <r>   -6.2314    1.0000 </r>
       <r>   -6.1056    1.0000 </r>
       <r>   -6.1046    1.0000 </r>
       <r>   -6.1016    1.0000 </r>
       <r>   -6.0938    1.0000 </r>
       <r>   -6.0887    1.0000 </r>
       <r>   -6.0857    1.0000 </r>
       <r>   -6.0831    1.0000 </r>
       <r>   -6.0823    1.0000 </r>
       <r>   -5.9816    1.0000 </r>
       <r>   -5.8175    1.0000 </r>
       <r>   -5.7880    1.0000 </r>
       <r>   -5.7337    1.0000 </r>
       <r>   -2.1735    1.0000 </r>
       <r>   -2.0608    1.0000 </r>
       <r>   -1.9955    1.0000 </r>
       <r>   -1.5620    1.0000 </r>
       <r>    0.0506    1.0000 </r>
       <r>    0.2603    1.0000 </r>
       <r>    0.3684    1.0000 </r>
       <r>    0.7961    1.0000 </r>
       <r>    0.8053    1.0000 </r>
       <r>    0.8362    1.0000 </r>
       <r>    0.9733    1.0000 </r>
       <r>    1.2612    1.0000 </r>
       <r>    3.7877    0.0000 </r>
       <r>    4.4190    0.0000 </r>
       <r>    4.4940    0.0000 </r>
       <r>    4.5399    0.0000 </r>
       <r>    6.4590    0.0000 </r>
       <r>    6.4599    0.0000 </r>
       <r>    6.5395    0.0000 </r>
       <r>    6.9078    0.0000 </r>
       <r>    7.0254    0.0000 </r>
       <r>    7.5352    0.0000 </r>
       <r>    7.5471    0.0000 </r>
       <r>    7.7007    0.0000 </r>
      </set>
      <set comment="kpoint 30">
       <r>   -8.7943    1.0000 </r>
       <r>   -8.7041    1.0000 </r>
       <r>   -8.7041    1.0000 </r>
       <r>   -8.6780    1.0000 </r>
       <r>   -6.2660    1.0000 </r>
       <r>   -6.2618    1.0000 </r>
       <r>   -6.2454    1.0000 </r>
       <r>   -6.2454    1.0000 </r>
       <r>   -6.2396    1.0000 </r>
       <r>   -6.2368    1.0000 </r>
       <r>   -6.2368    1.0000 </r>
       <r>   -6.2315    1.0000 </r>
       <r>   -6.1051    1.0000 </r>
       <r>   -6.1051    1.0000 </r>
       <r>   -6.1016    1.0000 </r>
       <r>   -6.0933    1.0000 </r>
       <r>   -6.0890    1.0000 </r>
       <r>   -6.0857    1.0000 </r>
       <r>   -6.0827    1.0000 </r>
       <r>   -6.0827    1.0000 </r>
       <r>   -5.9819    1.0000 </r>
       <r>   -5.8024    1.0000 </r>
       <r>   -5.8024    1.0000 </r>
       <r>   -5.7340    1.0000 </r>
       <r>   -2.1739    1.0000 </r>
       <r>   -2.0304    1.0000 </r>
       <r>   -2.0304    1.0000 </r>
       <r>   -1.5620    1.0000 </r>
       <r>    0.0521    1.0000 </r>
       <r>    0.3136    1.0000 </r>
       <r>    0.3136    1.0000 </r>
       <r>    0.7988    1.0000 </r>
       <r>    0.8213    1.0000 </r>
       <r>    0.8213    1.0000 </r>
       <r>    0.9744    1.0000 </r>
       <r>    1.2676    1.0000 </r>
       <r>    3.7809    0.0000 </r>
       <r>    4.4556    0.0000 </r>
       <r>    4.4556    0.0000 </r>
       <r>    4.5347    0.0000 </r>
       <r>    6.4604    0.0000 </r>
       <r>    6.4604    0.0000 </r>
       <r>    6.5424    0.0000 </r>
       <r>    6.9653    0.0000 </r>
       <r>    6.9694    0.0000 </r>
       <r>    7.5399    0.0000 </r>
       <r>    7.5400    0.0000 </r>
       <r>    7.7056    0.0000 </r>
      </set>
      <set comment="kpoint 31">
       <r>   -8.7943    1.0000 </r>
       <r>   -8.7041    1.0000 </r>
       <r>   -8.7041    1.0000 </r>
       <r>   -8.6780    1.0000 </r>
       <r>   -6.2660    1.0000 </r>
       <r>   -6.2618    1.0000 </r>
       <r>   -6.2454    1.0000 </r>
       <r>   -6.2454    1.0000 </r>
       <r>   -6.2396    1.0000 </r>
       <r>   -6.2368    1.0000 </r>
       <r>   -6.2368    1.0000 </r>
       <r>   -6.2315    1.0000 </r>
       <r>   -6.1051    1.0000 </r>
       <r>   -6.1051    1.0000 </r>
       <r>   -6.1016    1.0000 </r>
       <r>   -6.0933    1.0000 </r>
       <r>   -6.0890    1.0000 </r>
[...]
        <r>  0.0000  0.0007  0.0001  0.0001  0.0308  0.0134  0.0000  0.1605  0.0000 </r>
        <r>  0.0000  0.0007  0.0001  0.0001  0.0308  0.0134  0.0000  0.1605  0.0000 </r>
        <r>  0.0170  0.0000  0.0000  0.0000  0.0000  0.0000  0.0001  0.0000  0.0001 </r>
        <r>  0.0157  0.0000  0.0000  0.0000  0.0000  0.0000  0.0001  0.0000  0.0001 </r>
        <r>  0.0228  0.0000  0.0000  0.0000  0.0000  0.0000  0.0000  0.0000  0.0001 </r>
        <r>  0.0438  0.0000  0.0000  0.0000  0.0000  0.0000  0.0000  0.0000  0.0001 </r>
       </set>
       <set comment="band 25">
        <r>  0.1407  0.0000  0.0000  0.0000  0.0000  0.0000  0.0014  0.0000  0.0004 </r>
        <r>  0.0255  0.0000  0.0000  0.0000  0.0000  0.0000  0.0010  0.0000  0.0061 </r>
        <r>  0.0125  0.0000  0.0000  0.0000  0.0000  0.0000  0.0016  0.0000  0.0061 </r>
        <r>  0.0608  0.0000  0.0000  0.0000  0.0000  0.0000  0.0051  0.0000  0.0004 </r>
        <r>  0.0000  0.0153  0.0112  0.0264  0.0002  0.0004  0.0000  0.0002  0.0000 </r>
        <r>  0.0000  0.0153  0.0112  0.0264  0.0002  0.0004  0.0000  0.0002  0.0000 </r>
        <r>  0.0000  0.0153  0.0112  0.0264  0.0002  0.0004  0.0000  0.0002  0.0000 </r>
        <r>  0.0000  0.0153  0.0112  0.0264  0.0002  0.0004  0.0000  0.0002  0.0000 </r>
       </set>
       <set comment="band 26">
        <r>  0.0295  0.0000  0.0000  0.0000  0.0000  0.0000  0.0069  0.0000  0.0000 </r>
        <r>  0.0383  0.0000  0.0000  0.0000  0.0000  0.0000  0.0047  0.0000  0.0018 </r>
        <r>  0.0559  0.0000  0.0000  0.0000  0.0000  0.0000  0.0039  0.0000  0.0018 </r>
        <r>  0.1159  0.0000  0.0000  0.0000  0.0000  0.0000  0.0029  0.0000  0.0000 </r>
        <r>  0.0000  0.0065  0.0412  0.0051  0.0006  0.0001  0.0000  0.0001  0.0000 </r>
        <r>  0.0000  0.0065  0.0412  0.0051  0.0006  0.0001  0.0000  0.0001  0.0000 </r>
        <r>  0.0000  0.0065  0.0412  0.0051  0.0006  0.0001  0.0000  0.0001  0.0000 </r>
        <r>  0.0000  0.0065  0.0412  0.0051  0.0006  0.0001  0.0000  0.0001  0.0000 </r>
       </set>
       <set comment="band 27">
        <r>  0.0095  0.0000  0.0000  0.0000  0.0000  0.0000  0.0000  0.0000  0.0078 </r>
        <r>  0.1158  0.0000  0.0000  0.0000  0.0000  0.0000  0.0026  0.0000  0.0004 </r>
        <r>  0.1112  0.0000  0.0000  0.0000  0.0000  0.0000  0.0028  0.0000  0.0004 </r>
        <r>  0.0030  0.0000  0.0000  0.0000  0.0000  0.0000  0.0003  0.0000  0.0078 </r>
        <r>  0.0000  0.0311  0.0005  0.0214  0.0000  0.0003  0.0000  0.0005  0.0000 </r>
        <r>  0.0000  0.0311  0.0005  0.0214  0.0000  0.0003  0.0000  0.0005  0.0000 </r>
        <r>  0.0000  0.0311  0.0005  0.0214  0.0000  0.0003  0.0000  0.0005  0.0000 </r>
        <r>  0.0000  0.0311  0.0005  0.0214  0.0000  0.0003  0.0000  0.0005  0.0000 </r>
       </set>
       <set comment="band 28">
        <r>  0.0000  0.0025  0.0020  0.0051  0.0004  0.0011  0.0000  0.0005  0.0000 </r>
        <r>  0.0000  0.0019  0.0065  0.0051  0.0014  0.0011  0.0000  0.0004  0.0000 </r>
        <r>  0.0000  0.0025  0.0065  0.0181  0.0014  0.0038  0.0000  0.0005  0.0000 </r>
        <r>  0.0000  0.0019  0.0020  0.0181  0.0004  0.0038  0.0000  0.0004  0.0000 </r>
        <r>  0.0000  0.0161  0.0060  0.0375  0.0000  0.0000  0.0000  0.0000  0.0000 </r>
        <r>  0.0000  0.0880  0.0317  0.0375  0.0000  0.0000  0.0000  0.0000  0.0000 </r>
        <r>  0.0000  0.0161  0.0317  0.0076  0.0000  0.0000  0.0000  0.0000  0.0000 </r>
        <r>  0.0000  0.0880  0.0060  0.0076  0.0000  0.0000  0.0000  0.0000  0.0000 </r>
       </set>
       <set comment="band 29">
        <r>  0.0000  0.0133  0.0057  0.0064  0.0012  0.0014  0.0000  0.0028  0.0000 </r>
        <r>  0.0000  0.0009  0.0013  0.0064  0.0003  0.0014  0.0000  0.0002  0.0000 </r>
        <r>  0.0000  0.0133  0.0013  0.0084  0.0003  0.0018  0.0000  0.0028  0.0000 </r>
        <r>  0.0000  0.0009  0.0057  0.0084  0.0012  0.0018  0.0000  0.0002  0.0000 </r>
        <r>  0.0000  0.0085  0.0300  0.0412  0.0000  0.0000  0.0000  0.0000  0.0000 </r>
        <r>  0.0000  0.0051  0.0621  0.0412  0.0000  0.0000  0.0000  0.0000  0.0000 </r>
        <r>  0.0000  0.0085  0.0621  0.0400  0.0000  0.0000  0.0000  0.0000  0.0000 </r>
        <r>  0.0000  0.0051  0.0300  0.0400  0.0000  0.0000  0.0000  0.0000  0.0000 </r>
       </set>
       <set comment="band 30">
        <r>  0.0000  0.0076  0.0198  0.0029  0.0042  0.0006  0.0000  0.0016  0.0000 </r>
        <r>  0.0000  0.0001  0.0018  0.0029  0.0004  0.0006  0.0000  0.0000  0.0000 </r>
        <r>  0.0000  0.0076  0.0018  0.0039  0.0004  0.0008  0.0000  0.0016  0.0000 </r>
        <r>  0.0000  0.0001  0.0198  0.0039  0.0042  0.0008  0.0000  0.0000  0.0000 </r>
        <r>  0.0000  0.0760  0.0258  0.0460  0.0000  0.0000  0.0000  0.0000  0.0000 </r>
        <r>  0.0000  0.0023  0.0027  0.0460  0.0000  0.0000  0.0000  0.0000  0.0000 </r>
        <r>  0.0000  0.0760  0.0027  0.0341  0.0000  0.0000  0.0000  0.0000  0.0000 </r>
        <r>  0.0000  0.0023  0.0258  0.0341  0.0000  0.0000  0.0000  0.0000  0.0000 </r>
       </set>
       <set comment="band 31">
        <r>  0.0000  0.0051  0.0017  0.0014  0.0004  0.0003  0.0000  0.0011  0.0000 </r>
        <r>  0.0000  0.0104  0.0141  0.0014  0.0030  0.0003  0.0000  0.0022  0.0000 </r>
        <r>  0.0000  0.0051  0.0141  0.0036  0.0030  0.0008  0.0000  0.0011  0.0000 </r>
        <r>  0.0000  0.0104  0.0017  0.0036  0.0004  0.0008  0.0000  0.0022  0.0000 </r>
        <r>  0.0000  0.0606  0.0225  0.0233  0.0000  0.0000  0.0000  0.0000  0.0000 </r>
        <r>  0.0000  0.0121  0.0002  0.0233  0.0000  0.0000  0.0000  0.0000  0.0000 </r>
        <r>  0.0000  0.0606  0.0002  0.0681  0.0000  0.0000  0.0000  0.0000  0.0000 </r>
        <r>  0.0000  0.0121  0.0225  0.0681  0.0000  0.0000  0.0000  0.0000  0.0000 </r>
       </set>
       <set comment="band 32">
        <r>  0.0000  0.0070  0.0015  0.0073  0.0003  0.0015  0.0000  0.0015  0.0000 </r>
        <r>  0.0000  0.0125  0.0056  0.0073  0.0012  0.0015  0.0000  0.0027  0.0000 </r>
        <r>  0.0000  0.0070  0.0056  0.0021  0.0012  0.0004  0.0000  0.0015  0.0000 </r>
        <r>  0.0000  0.0125  0.0015  0.0021  0.0003  0.0004  0.0000  0.0027  0.0000 </r>
        <r>  0.0000  0.0184  0.1024  0.0205  0.0001  0.0000  0.0000  0.0000  0.0000 </r>
        <r>  0.0000  0.0044  0.0251  0.0205  0.0000  0.0000  0.0000  0.0000  0.0000 </r>
        <r>  0.0000  0.0184  0.0251  0.0161  0.0000  0.0000  0.0000  0.0000  0.0000 </r>
        <r>  0.0000  0.0044  0.1024  0.0161  0.0001  0.0000  0.0000  0.0000  0.0000 </r>
       </set>
       <set comment="band 33">
        <r>  0.0000  0.0006  0.0054  0.0130  0.0011  0.0028  0.0000  0.0001  0.0000 </r>
        <r>  0.0000  0.0103  0.0067  0.0130  0.0014  0.0028  0.0000  0.0022  0.0000 </r>
        <r>  0.0000  0.0006  0.0067  0.0001  0.0014  0.0000  0.0000  0.0001  0.0000 </r>
        <r>  0.0000  0.0103  0.0054  0.0001  0.0011  0.0000  0.0000  0.0022  0.0000 </r>
        <r>  0.0000  0.0073  0.0001  0.0184  0.0000  0.0000  0.0000  0.0000  0.0000 </r>
        <r>  0.0000  0.0749  0.0651  0.0184  0.0000  0.0000  0.0000  0.0000  0.0000 </r>
        <r>  0.0000  0.0073  0.0651  0.0211  0.0000  0.0000  0.0000  0.0000  0.0000 </r>
        <r>  0.0000  0.0749  0.0001  0.0211  0.0000  0.0000  0.0000  0.0000  0.0000 </r>
       </set>
       <set comment="band 34">
        <r>  0.0000  0.0015  0.0013  0.0033  0.0036  0.0091  0.0000  0.0041  0.0000 </r>
        <r>  0.0000  0.0015  0.0013  0.0033  0.0036  0.0091  0.0000  0.0041  0.0000 </r>
        <r>  0.0000  0.0015  0.0013  0.0033  0.0036  0.0091  0.0000  0.0041  0.0000 </r>
        <r>  0.0000  0.0015  0.0013  0.0033  0.0036  0.0091  0.0000  0.0041  0.0000 </r>
        <r>  0.0000  0.0300  0.0264  0.0658  0.0000  0.0001  0.0000  0.0000  0.0000 </r>
        <r>  0.0000  0.0300  0.0264  0.0658  0.0000  0.0001  0.0000  0.0000  0.0000 </r>
        <r>  0.0000  0.0300  0.0264  0.0658  0.0000  0.0001  0.0000  0.0000  0.0000 </r>
        <r>  0.0000  0.0300  0.0264  0.0658  0.0000  0.0001  0.0000  0.0000  0.0000 </r>
       </set>
       <set comment="band 35">
        <r>  0.0000  0.0039  0.0015  0.0007  0.0041  0.0020  0.0000  0.0107  0.0000 </r>
        <r>  0.0000  0.0039  0.0015  0.0007  0.0041  0.0020  0.0000  0.0107  0.0000 </r>
        <r>  0.0000  0.0039  0.0015  0.0007  0.0041  0.0020  0.0000  0.0107  0.0000 </r>
        <r>  0.0000  0.0039  0.0015  0.0007  0.0041  0.0020  0.0000  0.0107  0.0000 </r>
        <r>  0.0000  0.0776  0.0299  0.0146  0.0000  0.0000  0.0000  0.0001  0.0000 </r>
        <r>  0.0000  0.0776  0.0299  0.0146  0.0000  0.0000  0.0000  0.0001  0.0000 </r>
        <r>  0.0000  0.0776  0.0299  0.0146  0.0000  0.0000  0.0000  0.0001  0.0000 </r>
        <r>  0.0000  0.0776  0.0299  0.0146  0.0000  0.0000  0.0000  0.0001  0.0000 </r>
       </set>
       <set comment="band 36">
        <r>  0.0000  0.0007  0.0033  0.0021  0.0091  0.0057  0.0000  0.0020  0.0000 </r>
        <r>  0.0000  0.0007  0.0033  0.0021  0.0091  0.0057  0.0000  0.0020  0.0000 </r>
        <r>  0.0000  0.0007  0.0033  0.0021  0.0091  0.0057  0.0000  0.0020  0.0000 </r>
        <r>  0.0000  0.0007  0.0033  0.0021  0.0091  0.0057  0.0000  0.0020  0.0000 </r>
        <r>  0.0000  0.0146  0.0659  0.0417  0.0001  0.0000  0.0000  0.0000  0.0000 </r>
        <r>  0.0000  0.0146  0.0659  0.0417  0.0001  0.0000  0.0000  0.0000  0.0000 </r>
        <r>  0.0000  0.0146  0.0659  0.0417  0.0001  0.0000  0.0000  0.0000  0.0000 </r>
        <r>  0.0000  0.0146  0.0659  0.0417  0.0001  0.0000  0.0000  0.0000  0.0000 </r>
       </set>
       <set comment="band 37">
        <r>  0.0819  0.0000  0.0000  0.0000  0.0000  0.0000  0.0000  0.0000  0.0000 </r>
        <r>  0.0819  0.0000  0.0000  0.0000  0.0000  0.0000  0.0000  0.0000  0.0000 </r>
        <r>  0.0819  0.0000  0.0000  0.0000  0.0000  0.0000  0.0000  0.0000  0.0000 </r>
        <r>  0.0819  0.0000  0.0000  0.0000  0.0000  0.0000  0.0000  0.0000  0.0000 </r>
        <r>  0.0549  0.0000  0.0000  0.0000  0.0000  0.0000  0.0000  0.0000  0.0000 </r>
        <r>  0.0549  0.0000  0.0000  0.0000  0.0000  0.0000  0.0000  0.0000  0.0000 </r>
        <r>  0.0549  0.0000  0.0000  0.0000  0.0000  0.0000  0.0000  0.0000  0.0000 </r>
        <r>  0.0549  0.0000  0.0000  0.0000  0.0000  0.0000  0.0000  0.0000  0.0000 </r>
       </set>
       <set comment="band 38">
        <r>  0.0066  0.0000  0.0000  0.0000  0.0000  0.0000  0.0061  0.0000  0.0054 </r>
        <r>  0.0253  0.0000  0.0000  0.0000  0.0000  0.0000  0.0089  0.0000  0.0012 </r>
        <r>  0.1200  0.0000  0.0000  0.0000  0.0000  0.0000  0.0019  0.0000  0.0012 </r>
        <r>  0.0633  0.0000  0.0000  0.0000  0.0000  0.0000  0.0019  0.0000  0.0054 </r>
        <r>  0.0000  0.0100  0.0137  0.0065  0.0051  0.0024  0.0000  0.0037  0.0000 </r>
        <r>  0.0000  0.0100  0.0137  0.0065  0.0051  0.0024  0.0000  0.0037  0.0000 </r>
        <r>  0.0000  0.0100  0.0137  0.0065  0.0051  0.0024  0.0000  0.0037  0.0000 </r>
        <r>  0.0000  0.0100  0.0137  0.0065  0.0051  0.0024  0.0000  0.0037  0.0000 </r>
       </set>
       <set comment="band 39">
        <r>  0.0485  0.0000  0.0000  0.0000  0.0000  0.0000  0.0028  0.0000  0.0056 </r>
        <r>  0.1313  0.0000  0.0000  0.0000  0.0000  0.0000  0.0012  0.0000  0.0010 </r>
        <r>  0.0171  0.0000  0.0000  0.0000  0.0000  0.0000  0.0097  0.0000  0.0010 </r>
        <r>  0.0182  0.0000  0.0000  0.0000  0.0000  0.0000  0.0050  0.0000  0.0056 </r>
        <r>  0.0000  0.0137  0.0135  0.0028  0.0051  0.0011  0.0000  0.0051  0.0000 </r>
        <r>  0.0000  0.0137  0.0135  0.0028  0.0051  0.0011  0.0000  0.0051  0.0000 </r>
        <r>  0.0000  0.0137  0.0135  0.0028  0.0051  0.0011  0.0000  0.0051  0.0000 </r>
        <r>  0.0000  0.0137  0.0135  0.0028  0.0051  0.0011  0.0000  0.0051  0.0000 </r>
       </set>
       <set comment="band 40">
        <r>  0.1064  0.0000  0.0000  0.0000  0.0000  0.0000  0.0030  0.0000  0.0010 </r>
        <r>  0.0048  0.0000  0.0000  0.0000  0.0000  0.0000  0.0018  0.0000  0.0098 </r>
        <r>  0.0242  0.0000  0.0000  0.0000  0.0000  0.0000  0.0004  0.0000  0.0098 </r>
        <r>  0.0798  0.0000  0.0000  0.0000  0.0000  0.0000  0.0050  0.0000  0.0010 </r>
        <r>  0.0000  0.0064  0.0029  0.0208  0.0011  0.0078  0.0000  0.0024  0.0000 </r>
        <r>  0.0000  0.0064  0.0029  0.0208  0.0011  0.0078  0.0000  0.0024  0.0000 </r>
        <r>  0.0000  0.0064  0.0029  0.0208  0.0011  0.0078  0.0000  0.0024  0.0000 </r>
        <r>  0.0000  0.0064  0.0029  0.0208  0.0011  0.0078  0.0000  0.0024  0.0000 </r>
       </set>
       <set comment="band 41">
        <r>  0.0000  0.0082  0.0078  0.0089  0.0023  0.0026  0.0000  0.0024  0.0000 </r>
        <r>  0.0000  0.0082  0.0078  0.0089  0.0023  0.0026  0.0000  0.0024  0.0000 </r>
        <r>  0.0000  0.0082  0.0078  0.0089  0.0023  0.0026  0.0000  0.0024  0.0000 </r>
        <r>  0.0000  0.0082  0.0078  0.0089  0.0023  0.0026  0.0000  0.0024  0.0000 </r>
        <r>  0.0124  0.0000  0.0000  0.0000  0.0000  0.0000  0.0060  0.0000  0.0024 </r>
        <r>  0.0156  0.0000  0.0000  0.0000  0.0000  0.0000  0.0006  0.0000  0.0066 </r>
        <r>  0.0001  0.0000  0.0000  0.0000  0.0000  0.0000  0.0065  0.0000  0.0066 </r>
        <r>  0.0180  0.0000  0.0000  0.0000  0.0000  0.0000  0.0039  0.0000  0.0024 </r>
       </set>
       <set comment="band 42">
        <r>  0.0000  0.0001  0.0138  0.0110  0.0040  0.0032  0.0000  0.0000  0.0000 </r>
        <r>  0.0000  0.0001  0.0138  0.0110  0.0040  0.0032  0.0000  0.0000  0.0000 </r>
        <r>  0.0000  0.0001  0.0138  0.0110  0.0040  0.0032  0.0000  0.0000  0.0000 </r>
        <r>  0.0000  0.0001  0.0138  0.0110  0.0040  0.0032  0.0000  0.0000  0.0000 </r>
        <r>  0.0181  0.0000  0.0000  0.0000  0.0000  0.0000  0.0029  0.0000  0.0033 </r>
        <r>  0.0025  0.0000  0.0000  0.0000  0.0000  0.0000  0.0097  0.0000  0.0026 </r>
        <r>  0.0219  0.0000  0.0000  0.0000  0.0000  0.0000  0.0023  0.0000  0.0026 </r>
        <r>  0.0036  0.0000  0.0000  0.0000  0.0000  0.0000  0.0085  0.0000  0.0033 </r>
       </set>
       <set comment="band 43">
        <r>  0.0000  0.0165  0.0033  0.0050  0.0010  0.0015  0.0000  0.0048  0.0000 </r>
        <r>  0.0000  0.0165  0.0033  0.0050  0.0010  0.0015  0.0000  0.0048  0.0000 </r>
        <r>  0.0000  0.0165  0.0033  0.0050  0.0010  0.0015  0.0000  0.0048  0.0000 </r>
        <r>  0.0000  0.0165  0.0033  0.0050  0.0010  0.0015  0.0000  0.0048  0.0000 </r>
        <r>  0.0041  0.0000  0.0000  0.0000  0.0000  0.0000  0.0042  0.0000  0.0074 </r>
        <r>  0.0166  0.0000  0.0000  0.0000  0.0000  0.0000  0.0029  0.0000  0.0040 </r>
        <r>  0.0125  0.0000  0.0000  0.0000  0.0000  0.0000  0.0044  0.0000  0.0040 </r>
        <r>  0.0130  0.0000  0.0000  0.0000  0.0000  0.0000  0.0008  0.0000  0.0074 </r>
       </set>
       <set comment="band 44">
        <r>  0.0000  0.0051  0.0255  0.0281  0.0001  0.0001  0.0000  0.0000  0.0000 </r>
        <r>  0.0000  0.0051  0.0255  0.0281  0.0001  0.0001  0.0000  0.0000  0.0000 </r>
        <r>  0.0000  0.0051  0.0255  0.0281  0.0001  0.0001  0.0000  0.0000  0.0000 </r>
        <r>  0.0000  0.0051  0.0255  0.0281  0.0001  0.0001  0.0000  0.0000  0.0000 </r>
        <r>  0.0000  0.0002  0.0009  0.0010  0.0091  0.0100  0.0000  0.0018  0.0000 </r>
        <r>  0.0000  0.0002  0.0009  0.0010  0.0091  0.0100  0.0000  0.0018  0.0000 </r>
        <r>  0.0000  0.0002  0.0009  0.0010  0.0091  0.0100  0.0000  0.0018  0.0000 </r>
        <r>  0.0000  0.0002  0.0009  0.0010  0.0091  0.0100  0.0000  0.0018  0.0000 </r>
       </set>
       <set comment="band 45">
        <r>  0.0000  0.0410  0.0157  0.0020  0.0001  0.0000  0.0000  0.0002  0.0000 </r>
        <r>  0.0000  0.0410  0.0157  0.0020  0.0001  0.0000  0.0000  0.0002  0.0000 </r>
        <r>  0.0000  0.0410  0.0157  0.0020  0.0001  0.0000  0.0000  0.0002  0.0000 </r>
        <r>  0.0000  0.0410  0.0157  0.0020  0.0001  0.0000  0.0000  0.0002  0.0000 </r>
        <r>  0.0000  0.0015  0.0006  0.0001  0.0056  0.0007  0.0000  0.0146  0.0000 </r>
        <r>  0.0000  0.0015  0.0006  0.0001  0.0056  0.0007  0.0000  0.0146  0.0000 </r>
        <r>  0.0000  0.0015  0.0006  0.0001  0.0056  0.0007  0.0000  0.0146  0.0000 </r>
        <r>  0.0000  0.0015  0.0006  0.0001  0.0056  0.0007  0.0000  0.0146  0.0000 </r>
       </set>
       <set comment="band 46">
        <r>  0.0000  0.0126  0.0175  0.0287  0.0001  0.0001  0.0000  0.0000  0.0000 </r>
        <r>  0.0000  0.0126  0.0175  0.0287  0.0001  0.0001  0.0000  0.0000  0.0000 </r>
        <r>  0.0000  0.0126  0.0175  0.0287  0.0001  0.0001  0.0000  0.0000  0.0000 </r>
        <r>  0.0000  0.0126  0.0175  0.0287  0.0001  0.0001  0.0000  0.0000  0.0000 </r>
        <r>  0.0000  0.0004  0.0006  0.0010  0.0062  0.0103  0.0000  0.0045  0.0000 </r>
        <r>  0.0000  0.0004  0.0006  0.0010  0.0062  0.0103  0.0000  0.0045  0.0000 </r>
        <r>  0.0000  0.0004  0.0006  0.0010  0.0062  0.0103  0.0000  0.0045  0.0000 </r>
        <r>  0.0000  0.0004  0.0006  0.0010  0.0062  0.0103  0.0000  0.0045  0.0000 </r>
       </set>
       <set comment="band 47">
        <r>  0.0554  0.0000  0.0000  0.0000  0.0000  0.0000  0.0000  0.0000  0.0000 </r>
        <r>  0.0554  0.0000  0.0000  0.0000  0.0000  0.0000  0.0000  0.0000  0.0000 </r>
        <r>  0.0554  0.0000  0.0000  0.0000  0.0000  0.0000  0.0000  0.0000  0.0000 </r>
        <r>  0.0554  0.0000  0.0000  0.0000  0.0000  0.0000  0.0000  0.0000  0.0000 </r>
        <r>  0.0019  0.0000  0.0000  0.0000  0.0000  0.0000  0.0000  0.0000  0.0000 </r>
        <r>  0.0019  0.0000  0.0000  0.0000  0.0000  0.0000  0.0000  0.0000  0.0000 </r>
        <r>  0.0019  0.0000  0.0000  0.0000  0.0000  0.0000  0.0000  0.0000  0.0000 </r>
        <r>  0.0019  0.0000  0.0000  0.0000  0.0000  0.0000  0.0000  0.0000  0.0000 </r>
       </set>
       <set comment="band 48">
        <r>  0.0016  0.0000  0.0003  0.0001  0.0000  0.0000  0.0011  0.0000  0.0017 </r>
        <r>  0.0218  0.0002  0.0000  0.0001  0.0000  0.0000  0.0015  0.0000  0.0001 </r>
        <r>  0.0310  0.0000  0.0000  0.0002  0.0000  0.0000  0.0010  0.0000  0.0001 </r>
        <r>  0.0143  0.0002  0.0003  0.0002  0.0000  0.0000  0.0004  0.0000  0.0017 </r>
        <r>  0.0000  0.0266  0.0329  0.0247  0.0014  0.0013  0.0000  0.0016  0.0000 </r>
        <r>  0.0000  0.0218  0.0293  0.0220  0.0017  0.0015  0.0000  0.0022  0.0000 </r>
        <r>  0.0000  0.0274  0.0298  0.0270  0.0017  0.0010  0.0000  0.0016  0.0000 </r>
        <r>  0.0000  0.0329  0.0263  0.0197  0.0021  0.0018  0.0000  0.0010  0.0000 </r>
       </set>
      </set>
     </set>
    </set>
   </array>
  </projected>
 </calculation>
 <structure name="finalpos" >
  <crystal>
   <varray name="basis" >
    <v>       6.62906742       0.00000000       0.00000000 </v>
    <v>       0.00000000       6.62906742       0.00000000 </v>
    <v>       0.00000000       0.00000000       6.62906742 </v>
   </varray>
   <i name="volume">    291.31128482 </i>
   <varray name="rec_basis" >
    <v>       0.15085078       0.00000000       0.00000000 </v>
    <v>       0.00000000       0.15085078       0.00000000 </v>
    <v>       0.00000000       0.00000000       0.15085078 </v>
   </varray>
  </crystal>
  <varray name="positions" >
   <v>       0.00000000       0.00000000       0.00000000 </v>
   <v>       0.00000000       0.50000000       0.50000000 </v>
   <v>       0.50000000       0.00000000       0.50000000 </v>
   <v>       0.50000000       0.50000000       0.00000000 </v>
   <v>       0.25000000       0.25000000       0.25000000 </v>
   <v>       0.25000000       0.75000000       0.75000000 </v>
   <v>       0.75000000       0.25000000       0.75000000 </v>
   <v>       0.75000000       0.75000000       0.25000000 </v>
  </varray>
 </structure>
</modeling>
