       N       E                     dE             d eps       ncg     rms          rms(c)
DAV:   1    -0.899361235906E+01   -0.89936E+01   -0.48709E+03  2688   0.477E+02
DAV:   2    -0.222703991318E+02   -0.13277E+02   -0.13196E+02  3312   0.437E+01
DAV:   3    -0.223137977658E+02   -0.43399E-01   -0.43385E-01  3360   0.319E+00
DAV:   4    -0.223139186151E+02   -0.12085E-03   -0.12085E-03  3912   0.110E-01
DAV:   5    -0.223139189702E+02   -0.35510E-06   -0.35574E-06  3528   0.335E-03    0.168E+01
DAV:   6    -0.189178676544E+02    0.33961E+01   -0.17928E+01  2832   0.316E+01    0.310E+00
DAV:   7    -0.188640267285E+02    0.53841E-01   -0.18669E-02  3168   0.611E-01    0.183E+00
DAV:   8    -0.188373873097E+02    0.26639E-01   -0.10356E-02  2904   0.533E-01    0.993E-02
DAV:   9    -0.188374818261E+02   -0.94516E-04   -0.47791E-04  3816   0.111E-01
   1 F= -.18837482E+02 E0= -.18836264E+02  d E =-.188375E+02
