       N       E                     dE             d eps       ncg     rms          rms(c)
DAV:   1    -0.883387581356E+01   -0.88339E+01   -0.48901E+03  2688   0.484E+02
DAV:   2    -0.220997266003E+02   -0.13266E+02   -0.13186E+02  3240   0.444E+01
DAV:   3    -0.221523193400E+02   -0.52593E-01   -0.52566E-01  3456   0.355E+00
DAV:   4    -0.221524034127E+02   -0.84073E-04   -0.84072E-04  3792   0.816E-02
DAV:   5    -0.221524034802E+02   -0.67509E-07   -0.67424E-07  3624   0.149E-03    0.186E+01
DAV:   6    -0.190882444506E+02    0.30642E+01   -0.14001E+01  2736   0.289E+01    0.288E+00
DAV:   7    -0.190074817310E+02    0.80763E-01   -0.91032E-02  3672   0.184E+00    0.178E+00
DAV:   8    -0.189755238572E+02    0.31958E-01   -0.95198E-03  2832   0.573E-01    0.234E-01
DAV:   9    -0.189751004359E+02    0.42342E-03   -0.10293E-03  3744   0.127E-01    0.660E-02
DAV:  10    -0.189750386602E+02    0.61776E-04   -0.25194E-05  1512   0.293E-02
   1 F= -.18975039E+02 E0= -.18973882E+02  d E =-.189750E+02
