       N       E                     dE             d eps       ncg     rms          rms(c)
DAV:   1    -0.893605217427E+01   -0.89361E+01   -0.50543E+03  2688   0.502E+02
DAV:   2    -0.215965485409E+02   -0.12660E+02   -0.12542E+02  3336   0.451E+01
DAV:   3    -0.216339398868E+02   -0.37391E-01   -0.37386E-01  3312   0.301E+00
DAV:   4    -0.216340241469E+02   -0.84260E-04   -0.84261E-04  4008   0.889E-02
DAV:   5    -0.216340242784E+02   -0.13147E-06   -0.13051E-06  3456   0.170E-03    0.211E+01
DAV:   6    -0.189673266119E+02    0.26667E+01   -0.10501E+01  2784   0.259E+01    0.267E+00
DAV:   7    -0.188457431993E+02    0.12158E+00   -0.19931E-01  3552   0.306E+00    0.158E+00
DAV:   8    -0.188077377654E+02    0.38005E-01   -0.10153E-02  3120   0.500E-01    0.242E-01
DAV:   9    -0.188070650994E+02    0.67267E-03   -0.67506E-04  3528   0.130E-01    0.821E-02
DAV:  10    -0.188069911458E+02    0.73954E-04   -0.18214E-05  1944   0.224E-02
   1 F= -.18806991E+02 E0= -.18805747E+02  d E =-.188070E+02
