       N       E                     dE             d eps       ncg     rms          rms(c)
DAV:   1     0.344004102127E+03    0.34400E+03   -0.27600E+04   960   0.979E+02
DAV:   2    -0.887263942749E+01   -0.35288E+03   -0.34973E+03  1224   0.266E+02
DAV:   3    -0.197650537283E+02   -0.10892E+02   -0.10886E+02  1152   0.524E+01
DAV:   4    -0.198772760441E+02   -0.11222E+00   -0.11222E+00  1584   0.393E+00
DAV:   5    -0.198775610535E+02   -0.28501E-03   -0.28501E-03  1176   0.172E-01    0.121E+01
DAV:   6    -0.190164014397E+02    0.86116E+00   -0.24137E+00  1032   0.971E+00    0.951E+00
DAV:   7    -0.189592920869E+02    0.57109E-01   -0.88155E-01  1080   0.322E+00    0.313E+00
DAV:   8    -0.189572953140E+02    0.19968E-02   -0.73177E-02  1152   0.198E+00    0.112E+00
DAV:   9    -0.189580400061E+02   -0.74469E-03   -0.81252E-03  1200   0.554E-01    0.259E-01
DAV:  10    -0.189581064214E+02   -0.66415E-04   -0.89647E-04  1296   0.187E-01    0.939E-02
DAV:  11    -0.189582385810E+02   -0.13216E-03   -0.35018E-04  1176   0.111E-01    0.258E-02
DAV:  12    -0.189582619787E+02   -0.23398E-04   -0.84654E-05  1248   0.620E-02    0.183E-02
DAV:  13    -0.189582668121E+02   -0.48334E-05   -0.24250E-05   936   0.291E-02
   1 F= -.18958267E+02 E0= -.18958267E+02  d E =-.189583E+02
