       N       E                     dE             d eps       ncg     rms          rms(c)
DAV:   1    -0.764586823591E+01   -0.76459E+01   -0.38871E+03  2688   0.304E+02
DAV:   2    -0.150322712267E+02   -0.73864E+01   -0.72708E+01  3888   0.257E+01
DAV:   3    -0.150660587596E+02   -0.33788E-01   -0.33780E-01  3504   0.218E+00
DAV:   4    -0.150661076289E+02   -0.48869E-04   -0.48869E-04  4680   0.756E-02
DAV:   5    -0.150661076386E+02   -0.96516E-08   -0.10464E-07  3336   0.742E-04    0.261E+00
DAV:   6    -0.150147677071E+02    0.51340E-01   -0.63720E-03  4152   0.249E-01    0.152E+00
DAV:   7    -0.149771994872E+02    0.37568E-01   -0.18301E-02  3456   0.395E-01    0.266E-01
DAV:   8    -0.149770897204E+02    0.10977E-03   -0.76249E-05  4680   0.336E-02    0.338E-02
DAV:   9    -0.149770813744E+02    0.83460E-05   -0.36616E-06  2592   0.567E-03
   1 F= -.14977081E+02 E0= -.14975875E+02  d E =-.241291E-02
