       N       E                     dE             d eps       ncg     rms          rms(c)
DAV:   1    -0.842444336150E+01   -0.84244E+01   -0.50015E+03  2688   0.484E+02
DAV:   2    -0.222355005804E+02   -0.13811E+02   -0.13727E+02  3144   0.446E+01
DAV:   3    -0.222945780929E+02   -0.59078E-01   -0.59059E-01  3384   0.379E+00
DAV:   4    -0.222947262787E+02   -0.14819E-03   -0.14819E-03  3720   0.122E-01
DAV:   5    -0.222947267940E+02   -0.51534E-06   -0.51533E-06  3672   0.453E-03    0.173E+01
DAV:   6    -0.190012146625E+02    0.32935E+01   -0.16574E+01  2736   0.308E+01    0.306E+00
DAV:   7    -0.189402205812E+02    0.60994E-01   -0.34740E-02  3552   0.925E-01    0.182E+00
DAV:   8    -0.189119293784E+02    0.28291E-01   -0.97887E-03  2856   0.575E-01    0.167E-01
DAV:   9    -0.189118621764E+02    0.67202E-04   -0.96796E-04  3816   0.151E-01
   1 F= -.18911862E+02 E0= -.18910669E+02  d E =-.189119E+02
