       N       E                     dE             d eps       ncg     rms          rms(c)
DAV:   1     0.308504336319E+03    0.30850E+03   -0.25633E+04   384   0.883E+02
DAV:   2    -0.103084622133E+02   -0.31881E+03   -0.31611E+03   480   0.246E+02
DAV:   3    -0.200049093728E+02   -0.96964E+01   -0.96907E+01   408   0.484E+01
DAV:   4    -0.201313560157E+02   -0.12645E+00   -0.12644E+00   648   0.431E+00
DAV:   5    -0.201316345032E+02   -0.27849E-03   -0.27849E-03   408   0.171E-01    0.108E+01
DAV:   6    -0.192459454522E+02    0.88569E+00   -0.25302E+00   408   0.895E+00    0.870E+00
DAV:   7    -0.191845280014E+02    0.61417E-01   -0.83927E-01   480   0.295E+00    0.312E+00
DAV:   8    -0.191839321608E+02    0.59584E-03   -0.58364E-02   408   0.170E+00    0.992E-01
DAV:   9    -0.191848489602E+02   -0.91680E-03   -0.64295E-03   552   0.472E-01    0.215E-01
DAV:  10    -0.191849817860E+02   -0.13283E-03   -0.66535E-04   408   0.147E-01    0.954E-02
DAV:  11    -0.191851785155E+02   -0.19673E-03   -0.39046E-04   360   0.981E-02    0.425E-02
DAV:  12    -0.191851822234E+02   -0.37079E-05   -0.38166E-05   408   0.351E-02
   1 F= -.19185182E+02 E0= -.19185182E+02  d E =-.112046E-15
