       N       E                     dE             d eps       ncg     rms          rms(c)
DAV:   1     0.335482483617E+03    0.33548E+03   -0.26914E+04   960   0.962E+02
DAV:   2    -0.811984515629E+01   -0.34360E+03   -0.34023E+03  1200   0.257E+02
DAV:   3    -0.199733397476E+02   -0.11853E+02   -0.11846E+02  1128   0.538E+01
DAV:   4    -0.201080599155E+02   -0.13472E+00   -0.13472E+00  1632   0.424E+00
DAV:   5    -0.201084464081E+02   -0.38649E-03   -0.38649E-03  1200   0.192E-01    0.895E+00
DAV:   6    -0.191754194915E+02    0.93303E+00   -0.28705E+00   984   0.866E+00    0.744E+00
DAV:   7    -0.191198886155E+02    0.55531E-01   -0.74518E-01  1128   0.269E+00    0.310E+00
DAV:   8    -0.191215439224E+02   -0.16553E-02   -0.41239E-02  1104   0.145E+00    0.837E-01
DAV:   9    -0.191227692673E+02   -0.12253E-02   -0.50672E-03  1248   0.419E-01    0.174E-01
DAV:  10    -0.191229749462E+02   -0.20568E-03   -0.87353E-04  1056   0.154E-01    0.792E-02
DAV:  11    -0.191232039411E+02   -0.22899E-03   -0.57625E-04  1296   0.937E-02    0.657E-02
DAV:  12    -0.191231998378E+02    0.41032E-05   -0.13828E-05  1056   0.184E-02
   1 F= -.19123200E+02 E0= -.19123200E+02  d E =-.191232E+02
