       N       E                     dE             d eps       ncg     rms          rms(c)
DAV:   1     0.327194162031E+03    0.32719E+03   -0.27017E+04   384   0.968E+02
DAV:   2    -0.906984882478E+01   -0.33626E+03   -0.33222E+03   480   0.258E+02
DAV:   3    -0.200003707981E+02   -0.10931E+02   -0.10924E+02   432   0.520E+01
DAV:   4    -0.201237414133E+02   -0.12337E+00   -0.12337E+00   648   0.417E+00
DAV:   5    -0.201240691385E+02   -0.32773E-03   -0.32772E-03   456   0.184E-01    0.106E+01
DAV:   6    -0.192351174091E+02    0.88895E+00   -0.25811E+00   456   0.925E+00    0.853E+00
DAV:   7    -0.191758375775E+02    0.59280E-01   -0.80900E-01   384   0.297E+00    0.311E+00
DAV:   8    -0.191765394391E+02   -0.70186E-03   -0.59794E-02   480   0.176E+00    0.102E+00
DAV:   9    -0.191776618112E+02   -0.11224E-02   -0.75284E-03   504   0.572E-01    0.184E-01
DAV:  10    -0.191776392648E+02    0.22546E-04   -0.11679E-03   504   0.220E-01    0.792E-02
DAV:  11    -0.191777801687E+02   -0.14090E-03   -0.36178E-04   432   0.102E-01    0.321E-02
DAV:  12    -0.191777859174E+02   -0.57487E-05   -0.44474E-05   408   0.461E-02
   1 F= -.19177786E+02 E0= -.19177786E+02  d E =-.966944E-16
