       N       E                     dE             d eps       ncg     rms          rms(c)
DAV:   1    -0.913433700999E+01   -0.91343E+01   -0.50811E+03  2688   0.497E+02
DAV:   2    -0.220182655081E+02   -0.12884E+02   -0.12779E+02  3360   0.444E+01
DAV:   3    -0.220610220980E+02   -0.42757E-01   -0.42754E-01  3432   0.317E+00
DAV:   4    -0.220611100918E+02   -0.87994E-04   -0.87994E-04  3888   0.841E-02
DAV:   5    -0.220611101341E+02   -0.42254E-07   -0.41489E-07  3576   0.108E-03    0.192E+01
DAV:   6    -0.190899093014E+02    0.29712E+01   -0.12993E+01  2736   0.281E+01    0.284E+00
DAV:   7    -0.189958922518E+02    0.94017E-01   -0.14402E-01  3624   0.245E+00    0.176E+00
DAV:   8    -0.189639916666E+02    0.31901E-01   -0.13888E-02  2856   0.925E-01    0.342E-01
DAV:   9    -0.189624077292E+02    0.15839E-02   -0.36543E-03  3552   0.302E-01    0.710E-02
DAV:  10    -0.189623475570E+02    0.60172E-04   -0.10421E-05  1512   0.177E-02
   1 F= -.18962348E+02 E0= -.18961628E+02  d E =-.144002E-02
