       N       E                     dE             d eps       ncg     rms          rms(c)
DAV:   1    -0.797646808543E+01   -0.79765E+01   -0.38810E+03  4032   0.304E+02
DAV:   2    -0.150493125110E+02   -0.70728E+01   -0.70073E+01  5880   0.253E+01
DAV:   3    -0.150807517843E+02   -0.31439E-01   -0.31433E-01  5184   0.209E+00
DAV:   4    -0.150807995719E+02   -0.47788E-04   -0.47787E-04  7080   0.767E-02
DAV:   5    -0.150807995893E+02   -0.17376E-07   -0.18336E-07  5256   0.813E-04    0.261E+00
DAV:   6    -0.150287690614E+02    0.52031E-01   -0.65369E-03  5904   0.251E-01    0.152E+00
DAV:   7    -0.149908333207E+02    0.37936E-01   -0.18702E-02  5424   0.398E-01    0.266E-01
DAV:   8    -0.149907202106E+02    0.11311E-03   -0.78832E-05  6936   0.340E-02    0.319E-02
DAV:   9    -0.149907120885E+02    0.81222E-05   -0.35879E-06  4272   0.555E-03
   1 F= -.14990712E+02 E0= -.14989686E+02  d E =-.205309E-02
