       N       E                     dE             d eps       ncg     rms          rms(c)
DAV:   1    -0.890234669016E+01   -0.89023E+01   -0.50331E+03  2688   0.502E+02
DAV:   2    -0.218147690531E+02   -0.12912E+02   -0.12779E+02  3336   0.449E+01
DAV:   3    -0.218517005270E+02   -0.36931E-01   -0.36924E-01  3312   0.294E+00
DAV:   4    -0.218517735004E+02   -0.72973E-04   -0.72973E-04  3912   0.847E-02
DAV:   5    -0.218517736280E+02   -0.12760E-06   -0.12848E-06  3528   0.189E-03    0.202E+01
DAV:   6    -0.190462420708E+02    0.28055E+01   -0.11618E+01  2736   0.270E+01    0.269E+00
DAV:   7    -0.189395911424E+02    0.10665E+00   -0.16131E-01  3648   0.267E+00    0.166E+00
DAV:   8    -0.189034942704E+02    0.36097E-01   -0.98185E-03  2928   0.510E-01    0.245E-01
DAV:   9    -0.189028767298E+02    0.61754E-03   -0.69616E-04  3648   0.974E-02    0.685E-02
DAV:  10    -0.189028130231E+02    0.63707E-04   -0.20604E-05  1752   0.260E-02
   1 F= -.18902813E+02 E0= -.18901656E+02  d E =-.189028E+02
