       N       E                     dE             d eps       ncg     rms          rms(c)
DAV:   1    -0.910216670572E+01   -0.91022E+01   -0.50062E+03  2688   0.484E+02
DAV:   2    -0.221954316602E+02   -0.13093E+02   -0.12974E+02  3192   0.442E+01
DAV:   3    -0.222416794679E+02   -0.46248E-01   -0.46233E-01  3264   0.332E+00
DAV:   4    -0.222418285097E+02   -0.14904E-03   -0.14904E-03  4032   0.124E-01
DAV:   5    -0.222418286731E+02   -0.16333E-06   -0.16280E-06  3432   0.204E-03    0.180E+01
DAV:   6    -0.190591080871E+02    0.31827E+01   -0.15265E+01  2784   0.299E+01    0.298E+00
DAV:   7    -0.189890591402E+02    0.70049E-01   -0.59834E-02  3696   0.138E+00    0.181E+00
DAV:   8    -0.189590105359E+02    0.30049E-01   -0.96339E-03  2904   0.588E-01    0.211E-01
DAV:   9    -0.189587463255E+02    0.26421E-03   -0.11337E-03  3600   0.151E-01    0.659E-02
DAV:  10    -0.189586846656E+02    0.61660E-04   -0.29028E-05  1584   0.313E-02
   1 F= -.18958685E+02 E0= -.18957510E+02  d E =-.189587E+02
