<?xml version="1.0" encoding="ISO-8859-1"?>
<modeling>
 <generator>
  <i name="program" type="string">vasp </i>
  <i name="version" type="string">6.3.0  </i>
  <i name="subversion" type="string">20Jan22 (build Feb 10 2022 15:15:41) complex                          parallel </i>
  <i name="platform" type="string">LinuxIFC </i>
  <i name="date" type="string">2023 09 27 </i>
  <i name="time" type="string">12:58:55 </i>
 </generator>
 <incar>
  <i type="int" name="ICHARG">    11</i>
  <i name="ENCUT">    400.00000000</i>
  <i type="int" name="ISMEAR">     0</i>
  <i name="SIGMA">      0.05000000</i>
  <i type="int" name="LORBIT">    11</i>
 </incar>
 <primitive_cell>
  <structure name="primitive_cell" >
   <crystal>
    <varray name="basis" >
     <v>       1.41776452       1.41776452      -1.41776452 </v>
     <v>      -1.41776452       1.41776452       1.41776452 </v>
     <v>       1.41776452      -1.41776452       1.41776452 </v>
    </varray>
    <i name="volume">     11.39914575 </i>
    <varray name="rec_basis" >
     <v>       0.35266787       0.35266787      -0.00000000 </v>
     <v>      -0.00000000       0.35266787       0.35266787 </v>
     <v>       0.35266787      -0.00000000       0.35266787 </v>
    </varray>
   </crystal>
   <varray name="positions" >
    <v>       0.00000000       0.00000000       0.00000000 </v>
   </varray>
  </structure>
  <varray name="primitive_index" >
   <v type="int" >        1 </v>
  </varray>
 </primitive_cell>
 <kpoints>
  <generation param="listgenerated">
   <i name="divisions" type="int">      10 </i>
   <v>       0.00000000       0.00000000       0.00000000 </v>
   <v>       0.50000000      -0.50000000       0.50000000 </v>
   <v>       0.00000000       0.00000000       0.50000000 </v>
   <v>       0.25000000       0.25000000       0.25000000 </v>
   <v>       0.00000000       0.00000000       0.00000000 </v>
  </generation>
  <varray name="kpointlist" >
   <v>       0.00000000       0.00000000       0.00000000 </v>
   <v>       0.05555556      -0.05555556       0.05555556 </v>
   <v>       0.11111111      -0.11111111       0.11111111 </v>
   <v>       0.16666667      -0.16666667       0.16666667 </v>
   <v>       0.22222222      -0.22222222       0.22222222 </v>
   <v>       0.27777778      -0.27777778       0.27777778 </v>
   <v>       0.33333333      -0.33333333       0.33333333 </v>
   <v>       0.38888889      -0.38888889       0.38888889 </v>
   <v>       0.44444444      -0.44444444       0.44444444 </v>
   <v>       0.50000000      -0.50000000       0.50000000 </v>
   <v>       0.50000000      -0.50000000       0.50000000 </v>
   <v>       0.44444444      -0.44444444       0.50000000 </v>
   <v>       0.38888889      -0.38888889       0.50000000 </v>
   <v>       0.33333333      -0.33333333       0.50000000 </v>
   <v>       0.27777778      -0.27777778       0.50000000 </v>
   <v>       0.22222222      -0.22222222       0.50000000 </v>
   <v>       0.16666667      -0.16666667       0.50000000 </v>
   <v>       0.11111111      -0.11111111       0.50000000 </v>
   <v>       0.05555556      -0.05555556       0.50000000 </v>
   <v>       0.00000000      -0.00000000       0.50000000 </v>
   <v>       0.00000000       0.00000000       0.50000000 </v>
   <v>       0.02777778       0.02777778       0.47222222 </v>
   <v>       0.05555556       0.05555556       0.44444444 </v>
   <v>       0.08333333       0.08333333       0.41666667 </v>
   <v>       0.11111111       0.11111111       0.38888889 </v>
   <v>       0.13888889       0.13888889       0.36111111 </v>
   <v>       0.16666667       0.16666667       0.33333333 </v>
   <v>       0.19444444       0.19444444       0.30555556 </v>
   <v>       0.22222222       0.22222222       0.27777778 </v>
   <v>       0.25000000       0.25000000       0.25000000 </v>
   <v>       0.25000000       0.25000000       0.25000000 </v>
   <v>       0.22222222       0.22222222       0.22222222 </v>
   <v>       0.19444444       0.19444444       0.19444444 </v>
   <v>       0.16666667       0.16666667       0.16666667 </v>
   <v>       0.13888889       0.13888889       0.13888889 </v>
   <v>       0.11111111       0.11111111       0.11111111 </v>
   <v>       0.08333333       0.08333333       0.08333333 </v>
   <v>       0.05555556       0.05555556       0.05555556 </v>
   <v>       0.02777778       0.02777778       0.02777778 </v>
   <v>       0.00000000       0.00000000       0.00000000 </v>
  </varray>
  <varray name="weights" >
   <v>       0.02500000 </v>
   <v>       0.02500000 </v>
   <v>       0.02500000 </v>
   <v>       0.02500000 </v>
   <v>       0.02500000 </v>
   <v>       0.02500000 </v>
   <v>       0.02500000 </v>
   <v>       0.02500000 </v>
   <v>       0.02500000 </v>
   <v>       0.02500000 </v>
   <v>       0.02500000 </v>
   <v>       0.02500000 </v>
   <v>       0.02500000 </v>
   <v>       0.02500000 </v>
   <v>       0.02500000 </v>
   <v>       0.02500000 </v>
   <v>       0.02500000 </v>
   <v>       0.02500000 </v>
   <v>       0.02500000 </v>
   <v>       0.02500000 </v>
   <v>       0.02500000 </v>
   <v>       0.02500000 </v>
   <v>       0.02500000 </v>
   <v>       0.02500000 </v>
   <v>       0.02500000 </v>
   <v>       0.02500000 </v>
   <v>       0.02500000 </v>
   <v>       0.02500000 </v>
   <v>       0.02500000 </v>
   <v>       0.02500000 </v>
   <v>       0.02500000 </v>
   <v>       0.02500000 </v>
   <v>       0.02500000 </v>
   <v>       0.02500000 </v>
   <v>       0.02500000 </v>
   <v>       0.02500000 </v>
   <v>       0.02500000 </v>
   <v>       0.02500000 </v>
   <v>       0.02500000 </v>
   <v>       0.02500000 </v>
  </varray>
 </kpoints>
 <parameters>
  <separator name="general" >
   <i type="string" name="SYSTEM">unknown system</i>
   <i type="logical" name="LCOMPAT"> F  </i>
  </separator>
  <separator name="electronic" >
   <i type="string" name="PREC">normal</i>
   <i name="ENMAX">    400.00000000</i>
   <i name="ENAUG">    402.10800000</i>
   <i name="EDIFF">      0.00010000</i>
   <i type="int" name="IALGO">    38</i>
   <i type="int" name="IWAVPR">    10</i>
   <i type="int" name="NBANDS">    24</i>
   <i type="int" name="NBANDSLOW">    -1</i>
   <i type="int" name="NBANDSHIGH">    -1</i>
   <i name="NELECT">     12.00000000</i>
   <i type="int" name="TURBO">     0</i>
   <i type="int" name="IRESTART">     0</i>
   <i type="int" name="NREBOOT">     0</i>
   <i type="int" name="NMIN">     0</i>
   <i name="EREF">      0.00000000</i>
   <separator name="electronic smearing" >
    <i type="int" name="ISMEAR">     0</i>
    <i name="SIGMA">      0.05000000</i>
    <i name="KSPACING">      0.50000000</i>
    <i type="logical" name="KGAMMA"> T  </i>
    <i type="logical" name="KBLOWUP"> T  </i>
   </separator>
   <separator name="electronic projectors" >
    <i type="logical" name="LREAL"> F  </i>
    <v name="ROPT">      0.00000000</v>
    <i type="int" name="LMAXPAW">  -100</i>
    <i type="int" name="LMAXMIX">     2</i>
    <i type="logical" name="NLSPLINE"> F  </i>
   </separator>
   <separator name="electronic startup" >
    <i type="int" name="ISTART">     0</i>
    <i type="int" name="ICHARG">    11</i>
    <i type="int" name="INIWAV">     1</i>
   </separator>
   <separator name="electronic spin" >
    <i type="int" name="ISPIN">     1</i>
    <i type="logical" name="LNONCOLLINEAR"> F  </i>
    <v name="MAGMOM">      1.00000000      1.00000000</v>
    <i name="NUPDOWN">     -1.00000000</i>
    <i type="logical" name="LSORBIT"> F  </i>
    <v name="SAXIS">      0.00000000      0.00000000      1.00000000</v>
    <i type="logical" name="LSPIRAL"> F  </i>
    <v name="QSPIRAL">      0.00000000      0.00000000      0.00000000</v>
    <i type="logical" name="LZEROZ"> F  </i>
   </separator>
   <separator name="electronic exchange-correlation" >
    <i type="logical" name="LASPH"> F  </i>
    <i type="logical" name="LMETAGGA"> F  </i>
   </separator>
   <separator name="electronic convergence" >
    <i type="int" name="NELM">    60</i>
    <i type="int" name="NELMDL">    -5</i>
    <i type="int" name="NELMIN">     2</i>
    <i name="ENINI">    400.00000000</i>
    <separator name="electronic convergence detail" >
     <i type="logical" name="LDIAG"> T  </i>
     <i type="logical" name="LSUBROT"> F  </i>
     <i name="WEIMIN">      0.00000000</i>
     <i name="EBREAK">      0.00000104</i>
     <i name="DEPER">      0.30000000</i>
     <i type="int" name="NRMM">     4</i>
     <i name="TIME">      0.40000000</i>
    </separator>
   </separator>
   <separator name="electronic mixer" >
    <i name="AMIX">      0.40000000</i>
    <i name="BMIX">      1.00000000</i>
    <i name="AMIN">      0.10000000</i>
    <i name="AMIX_MAG">      1.60000000</i>
    <i name="BMIX_MAG">      1.00000000</i>
    <separator name="electronic mixer details" >
     <i type="int" name="IMIX">     4</i>
     <i type="logical" name="MIXFIRST"> F  </i>
     <i type="int" name="MAXMIX">   -45</i>
     <i name="WC">    100.00000000</i>
     <i type="int" name="INIMIX">     1</i>
     <i type="int" name="MIXPRE">     1</i>
     <i type="int" name="MREMOVE">     5</i>
    </separator>
   </separator>
   <separator name="electronic dipolcorrection" >
    <i type="logical" name="LDIPOL"> F  </i>
    <i type="logical" name="LMONO"> F  </i>
    <i type="int" name="IDIPOL">     0</i>
    <i name="EPSILON">      1.00000000</i>
    <v name="DIPOL">   -100.00000000   -100.00000000   -100.00000000</v>
    <i name="EFIELD">      0.00000000</i>
   </separator>
  </separator>
  <separator name="grids" >
   <i type="int" name="NGX">    14</i>
   <i type="int" name="NGY">    14</i>
   <i type="int" name="NGZ">    14</i>
   <i type="int" name="NGXF">    28</i>
   <i type="int" name="NGYF">    28</i>
   <i type="int" name="NGZF">    28</i>
   <i type="logical" name="ADDGRID"> F  </i>
  </separator>
  <separator name="ionic" >
   <i type="int" name="NSW">     0</i>
   <i type="int" name="IBRION">    -1</i>
   <i type="int" name="MDALGO">     0</i>
   <i type="int" name="ISIF">     2</i>
   <i name="PSTRESS">      0.00000000</i>
   <i name="EDIFFG">      0.00100000</i>
   <i type="int" name="NFREE">     0</i>
   <i name="POTIM">      0.50000000</i>
   <i name="SMASS">     -3.00000000</i>
   <i name="SCALEE">      1.00000000</i>
  </separator>
  <separator name="ionic md" >
   <i name="TEBEG">      0.00010000</i>
   <i name="TEEND">      0.00010000</i>
   <i type="int" name="NBLOCK">     1</i>
   <i type="int" name="KBLOCK">     1</i>
   <i type="int" name="NPACO">   256</i>
   <i name="APACO">     10.00000000</i>
  </separator>
  <separator name="symmetry" >
   <i type="int" name="ISYM">     2</i>
   <i name="SYMPREC">      0.00001000</i>
  </separator>
  <separator name="dos" >
   <i type="int" name="LORBIT">    11</i>
   <v name="RWIGS">     -1.00000000</v>
   <i type="int" name="NEDOS">   301</i>
   <i name="EMIN">     10.00000000</i>
   <i name="EMAX">    -10.00000000</i>
   <i name="EFERMI">      0.00000000</i>
  </separator>
  <separator name="writing" >
   <i type="int" name="NWRITE">     2</i>
   <i type="logical" name="LWAVE"> T  </i>
   <i type="logical" name="LDOWNSAMPLE"> F  </i>
   <i type="logical" name="LCHARG"> T  </i>
   <i type="logical" name="LPARD"> F  </i>
   <i type="logical" name="LVTOT"> F  </i>
   <i type="logical" name="LVHAR"> F  </i>
   <i type="logical" name="LELF"> F  </i>
   <i type="logical" name="LOPTICS"> F  </i>
   <v name="STM">      0.00000000      0.00000000      0.00000000      0.00000000      0.00000000      0.00000000      0.00000000</v>
  </separator>
  <separator name="performance" >
   <i type="int" name="NPAR">    24</i>
   <i type="int" name="NSIM">     4</i>
   <i type="int" name="NBLK">    -1</i>
   <i type="logical" name="LPLANE"> T  </i>
   <i type="logical" name="LSCALAPACK"> T  </i>
   <i type="logical" name="LSCAAWARE"> T  </i>
   <i type="logical" name="LSCALU"> F  </i>
   <i type="logical" name="LASYNC"> F  </i>
   <i type="logical" name="LORBITALREAL"> F  </i>
  </separator>
  <separator name="miscellaneous" >
   <i type="int" name="IDIOT">     3</i>
   <i type="int" name="PHON_NSTRUCT">    -1</i>
   <i type="logical" name="LMUSIC"> F  </i>
   <v name="POMASS">     51.99600000</v>
   <v name="DARWINR">      0.00000000</v>
   <v name="DARWINV">      1.00000000</v>
   <i type="logical" name="LCORR"> T  </i>
  </separator>
  <i type="logical" name="GGA_COMPAT"> T  </i>
  <i type="logical" name="LBERRY"> F  </i>
  <i type="int" name="ICORELEVEL">     0</i>
  <i type="logical" name="LDAU"> F  </i>
  <i type="int" name="I_CONSTRAINED_M">     0</i>
  <separator name="electronic exchange-correlation" >
   <i type="string" name="GGA">--</i>
   <i type="int" name="VOSKOWN">     0</i>
   <i type="logical" name="LHFCALC"> F  </i>
   <i type="string" name="PRECFOCK"></i>
   <i type="logical" name="LSYMGRAD"> F  </i>
   <i type="logical" name="LHFONE"> F  </i>
   <i type="logical" name="LRHFCALC"> F  </i>
   <i type="logical" name="LTHOMAS"> F  </i>
   <i type="logical" name="LMODELHF"> F  </i>
   <i type="logical" name="LFOCKACE"> F  </i>
   <i name="ENCUT4O">     -1.00000000</i>
   <i type="int" name="EXXOEP">     0</i>
   <i type="int" name="FOURORBIT">     0</i>
   <i name="AEXX">      0.00000000</i>
   <i name="HFALPHA">      0.00000000</i>
   <i name="MCALPHA">      0.00000000</i>
   <i name="ALDAX">      1.00000000</i>
   <i name="AGGAX">      1.00000000</i>
   <i name="ALDAC">      1.00000000</i>
   <i name="AGGAC">      1.00000000</i>
   <i type="int" name="NKREDX">     1</i>
   <i type="int" name="NKREDY">     1</i>
   <i type="int" name="NKREDZ">     1</i>
   <i type="logical" name="SHIFTRED"> F  </i>
   <i type="logical" name="ODDONLY"> F  </i>
   <i type="logical" name="EVENONLY"> F  </i>
   <i type="int" name="LMAXFOCK">     0</i>
   <i type="int" name="NMAXFOCKAE">     0</i>
   <i type="logical" name="LFOCKAEDFT"> F  </i>
   <i name="HFSCREEN">      0.00000000</i>
   <i name="HFSCREENC">      0.00000000</i>
   <i type="int" name="NBANDSGWLOW">     0</i>
  </separator>
  <separator name="vdW DFT" >
   <i type="logical" name="LUSE_VDW"> F  </i>
   <i name="Zab_VDW">     -0.84910000</i>
   <i name="PARAM1">      0.12340000</i>
   <i name="PARAM2">      1.00000000</i>
   <i name="PARAM3">      0.00000000</i>
  </separator>
  <separator name="model GW" >
   <i type="int" name="MODEL_GW">     0</i>
   <i name="MODEL_EPS0">      6.83948745</i>
   <i name="MODEL_ALPHA">      1.00000000</i>
  </separator>
  <separator name="linear response parameters" >
   <i type="logical" name="LEPSILON"> F  </i>
   <i type="logical" name="LRPA"> F  </i>
   <i type="logical" name="LNABLA"> F  </i>
   <i type="logical" name="LVEL"> F  </i>
   <i name="CSHIFT">      0.10000000</i>
   <i name="OMEGAMAX">     -1.00000000</i>
   <i name="DEG_THRESHOLD">      0.00200000</i>
   <i name="RTIME">     -0.10000000</i>
   <i name="WPLASMAI">      0.00000000</i>
   <v name="DFIELD">      0.00000000      0.00000000      0.00000000</v>
   <v name="WPLASMA">      0.00000000      0.00000000      0.00000000      0.00000000      0.00000000      0.00000000      0.00000000      0.00000000      0.00000000</v>
  </separator>
  <separator name="orbital magnetization" >
   <i type="logical" name="NUCIND"> F  </i>
   <v name="MAGPOS">      0.00000000      0.00000000      0.00000000</v>
   <i type="logical" name="LNICSALL"> T  </i>
   <i type="logical" name="ORBITALMAG"> F  </i>
   <i type="logical" name="LMAGBLOCH"> F  </i>
   <i type="logical" name="LCHIMAG"> F  </i>
   <i type="logical" name="LGAUGE"> T  </i>
   <i type="int" name="MAGATOM">     0</i>
   <v name="MAGDIPOL">      0.00000000      0.00000000      0.00000000</v>
   <v name="AVECCONST">      0.00000000      0.00000000      0.00000000</v>
  </separator>
  <separator name="response functions" >
   <i type="logical" name="LFINITE_TEMPERATURE"> F  </i>
   <i type="logical" name="LADDER"> F  </i>
   <i type="logical" name="LRPAFORCE"> F  </i>
   <i type="logical" name="LFXC"> F  </i>
   <i type="logical" name="LHARTREE"> T  </i>
   <i type="int" name="IBSE">     0</i>
   <v type="int" name="KPOINT">    -1     0     0     0</v>
   <i type="logical" name="LTCTC"> F  </i>
   <i type="logical" name="LTCTE"> F  </i>
   <i type="logical" name="LTETE"> F  </i>
   <i type="logical" name="LTRIPLET"> F  </i>
   <i type="logical" name="LFXCEPS"> F  </i>
   <i type="logical" name="LFXHEG"> F  </i>
   <i type="int" name="NATURALO">     2</i>
   <i type="logical" name="LHOLEGF"> F  </i>
   <i type="logical" name="L2ORDER"> F  </i>
   <i type="logical" name="LDMP1"> F  </i>
   <i type="logical" name="LMP2LT"> F  </i>
   <i type="logical" name="LSMP2LT"> F  </i>
   <i type="logical" name="LGWLF"> F  </i>
   <i name="ENCUTGW">     -2.00000000</i>
   <i name="ENCUTGWSOFT">     -2.00000000</i>
   <i name="ENCUTLF">     -1.00000000</i>
   <i type="logical" name="LESF_SPLINES"> F  </i>
   <i type="int" name="LMAXMP2">    -1</i>
   <i name="SCISSOR">      0.00000000</i>
   <i type="int" name="NOMEGA">     0</i>
   <i type="int" name="NOMEGAR">     0</i>
   <i type="int" name="NBANDSGW">    -1</i>
   <i type="int" name="NBANDSO">    -1</i>
   <i type="int" name="NBANDSV">    -1</i>
   <i type="int" name="NELMGW">     1</i>
   <i type="int" name="NELMHF">     1</i>
   <i type="int" name="DIM">     3</i>
   <i type="int" name="IESPILON">     4</i>
   <i type="int" name="ANTIRES">     0</i>
   <i name="OMEGAMAX">    -30.00000000</i>
   <i name="OMEGAMIN">    -30.00000000</i>
   <i name="OMEGATL">   -200.00000000</i>
   <i type="int" name="OMEGAGRID">     0</i>
   <i name="CSHIFT">     -0.10000000</i>
   <i type="logical" name="LSELFENERGY"> F  </i>
   <i type="logical" name="LSPECTRAL"> F  </i>
   <i type="logical" name="LSPECTRALGW"> F  </i>
   <i type="logical" name="LSINGLES"> F  </i>
   <i type="logical" name="LFERMIGW"> F  </i>
   <i type="logical" name="ODDONLYGW"> F  </i>
   <i type="logical" name="EVENONLYGW"> F  </i>
   <i type="int" name="NKREDLFX">     1</i>
   <i type="int" name="NKREDLFY">     1</i>
   <i type="int" name="NKREDLFZ">     1</i>
   <i type="int" name="MAXMEM">  2800</i>
   <i type="int" name="TELESCOPE">     0</i>
   <i type="int" name="NTAUPAR">    -1</i>
   <i type="int" name="NOMEGAPAR">    -1</i>
   <i name="DAMP_NEWTON">      0.80000001</i>
   <i name="LAMBDA">      1.00000000</i>
  </separator>
  <separator name="External order field" >
   <i name="OFIELD_KAPPA">      0.00000000</i>
   <v name="OFIELD_K">      0.00000000      0.00000000      0.00000000</v>
   <i name="OFIELD_Q6_NEAR">      0.00000000</i>
   <i name="OFIELD_Q6_FAR">      0.00000000</i>
   <i name="OFIELD_A">      0.00000000</i>
  </separator>
  <separator name="optional k-points parameters" >
   <i type="int" name="KPOINTS_OPT_MODE">     1</i>
   <i type="logical" name="LKPOINTS_OPT"> F  </i>
  </separator>
 </parameters>
 <atominfo>
  <atoms>       2 </atoms>
  <types>       1 </types>
  <array name="atoms" >
   <dimension dim="1">ion</dimension>
   <field type="string">element</field>
   <field type="int">atomtype</field>
   <set>
    <rc><c>Cr</c><c>   1</c></rc>
    <rc><c>Cr</c><c>   1</c></rc>
   </set>
  </array>
  <array name="atomtypes" >
   <dimension dim="1">type</dimension>
   <field type="int">atomspertype</field>
   <field type="string">element</field>
   <field>mass</field>
   <field>valence</field>
   <field type="string">pseudopotential</field>
   <set>
    <rc><c>   2</c><c>Cr</c><c>     51.99600000</c><c>      6.00000000</c><c>  PAW_PBE Cr 06Sep2000                  </c></rc>
   </set>
  </array>
 </atominfo>
 <structure name="initialpos" >
  <crystal>
   <varray name="basis" >
    <v>       2.83552905       0.00000000       0.00000000 </v>
    <v>       0.00000000       2.83552905       0.00000000 </v>
    <v>       0.00000000       0.00000000       2.83552905 </v>
   </varray>
   <i name="volume">     22.79829149 </i>
   <varray name="rec_basis" >
    <v>       0.35266787       0.00000000       0.00000000 </v>
    <v>       0.00000000       0.35266787       0.00000000 </v>
    <v>       0.00000000       0.00000000       0.35266787 </v>
   </varray>
  </crystal>
  <varray name="positions" >
   <v>       0.00000000       0.00000000       0.00000000 </v>
   <v>       0.50000000       0.50000000       0.50000000 </v>
  </varray>
 </structure>
 <calculation>
  <scstep>
   <time name="dav">    0.09    0.12</time>
   <time name="total">    0.10    0.14</time>
   <energy>
    <i name="alphaZ">     72.51454648 </i>
    <i name="ewald">   -665.32584042 </i>
    <i name="hartreedc">    -43.17281144 </i>
    <i name="XCdc">    -38.76972014 </i>
    <i name="pawpsdc">    831.42112927 </i>
    <i name="pawaedc">   -792.25429705 </i>
    <i name="eentropy">     -0.00091480 </i>
    <i name="bandstr">     74.21017951 </i>
    <i name="atom">    553.76826754 </i>
    <i name="e_fr_energy">     -7.60946105 </i>
    <i name="e_wo_entrp">     -7.60854626 </i>
    <i name="e_0_energy">     -7.60900365 </i>
   </energy>
  </scstep>
  <scstep>
   <time name="dav">    0.12    0.12</time>
   <time name="total">    0.12    0.12</time>
   <energy>
    <i name="e_fr_energy">    -20.23665979 </i>
    <i name="e_wo_entrp">    -20.23024813 </i>
    <i name="e_0_energy">    -20.23345396 </i>
   </energy>
  </scstep>
  <scstep>
   <time name="dav">    0.14    0.14</time>
   <time name="total">    0.14    0.14</time>
   <energy>
    <i name="e_fr_energy">    -20.29209060 </i>
    <i name="e_wo_entrp">    -20.28571189 </i>
    <i name="e_0_energy">    -20.28890124 </i>
   </energy>
  </scstep>
  <scstep>
   <time name="dav">    0.17    0.17</time>
   <time name="total">    0.17    0.17</time>
   <energy>
    <i name="e_fr_energy">    -20.29214471 </i>
    <i name="e_wo_entrp">    -20.28576600 </i>
    <i name="e_0_energy">    -20.28895535 </i>
   </energy>
  </scstep>
  <scstep>
   <time name="dav">    0.17    0.17</time>
   <time name="total">    0.17    0.17</time>
   <energy>
    <i name="e_fr_energy">    -20.29214471 </i>
    <i name="e_wo_entrp">    -20.28576600 </i>
    <i name="e_0_energy">    -20.28895536 </i>
   </energy>
  </scstep>
  <scstep>
   <time name="dav">    0.11    0.11</time>
   <time name="total">    0.11    0.11</time>
   <energy>
    <i name="alphaZ">     72.51454648 </i>
    <i name="ewald">   -665.32584042 </i>
    <i name="hartreedc">    -43.17281144 </i>
    <i name="XCdc">    -38.76972014 </i>
    <i name="pawpsdc">    831.42112927 </i>
    <i name="pawaedc">   -792.25429705 </i>
    <i name="eentropy">     -0.00637871 </i>
    <i name="bandstr">     61.53295977 </i>
    <i name="atom">    553.76826754 </i>
    <i name="e_fr_energy">    -20.29214471 </i>
    <i name="e_wo_entrp">    -20.28576600 </i>
    <i name="e_0_energy">    -20.28895535 </i>
   </energy>
  </scstep>
  <structure>
   <crystal>
    <varray name="basis" >
     <v>       2.83552905       0.00000000       0.00000000 </v>
     <v>       0.00000000       2.83552905       0.00000000 </v>
     <v>       0.00000000       0.00000000       2.83552905 </v>
    </varray>
    <i name="volume">     22.79829149 </i>
    <varray name="rec_basis" >
     <v>       0.35266787       0.00000000       0.00000000 </v>
     <v>       0.00000000       0.35266787       0.00000000 </v>
     <v>       0.00000000       0.00000000       0.35266787 </v>
    </varray>
   </crystal>
   <varray name="positions" >
    <v>       0.00000000       0.00000000       0.00000000 </v>
    <v>       0.50000000       0.50000000       0.50000000 </v>
   </varray>
  </structure>
  <varray name="forces" >
   <v>       0.00000000       0.00000000      -0.00000000 </v>
   <v>      -0.00000000      -0.00000000       0.00000000 </v>
  </varray>
  <varray name="stress" >
   <v>     103.43556910      -0.00000000      -0.00000000 </v>
   <v>       0.00000000     103.43556910      -0.00000000 </v>
   <v>       0.00000000      -0.00000000     103.43556910 </v>
  </varray>
  <energy>
   <i name="e_fr_energy">    -20.29214471 </i>
   <i name="e_wo_entrp">    -20.28576600 </i>
   <i name="e_0_energy">    -20.28895535 </i>
  </energy>
  <time name="totalsc">    0.87    0.94</time>
  <eigenvalues>
   <array>
    <dimension dim="1">band</dimension>
    <dimension dim="2">kpoint</dimension>
    <dimension dim="3">spin</dimension>
    <field>eigene</field>
    <field>occ</field>
    <set>
     <set comment="spin 1">
      <set comment="kpoint 1">
       <r>   -0.1209    1.0000 </r>
       <r>    3.3718    1.0000 </r>
       <r>    3.3718    1.0000 </r>
       <r>    6.7776    1.0000 </r>
       <r>    6.7776    1.0000 </r>
       <r>    6.7776    1.0000 </r>
       <r>    8.8992    0.0000 </r>
       <r>    8.8992    0.0000 </r>
       <r>   10.1719    0.0000 </r>
       <r>   10.1719    0.0000 </r>
       <r>   10.1719    0.0000 </r>
       <r>   18.4861    0.0000 </r>
       <r>   18.4861    0.0000 </r>
       <r>   18.4861    0.0000 </r>
       <r>   25.1214    0.0000 </r>
       <r>   25.1214    0.0000 </r>
       <r>   30.8496    0.0000 </r>
       <r>   30.8496    0.0000 </r>
       <r>   30.8496    0.0000 </r>
       <r>   31.6684    0.0000 </r>
       <r>   37.5447    0.0000 </r>
       <r>   37.5447    0.0000 </r>
       <r>   41.5301    0.0000 </r>
       <r>   41.5301    0.0000 </r>
      </set>
      <set comment="kpoint 2">
       <r>    0.0837    1.0000 </r>
       <r>    3.4854    1.0000 </r>
       <r>    3.4854    1.0000 </r>
       <r>    6.7189    1.0000 </r>
       <r>    6.7189    1.0000 </r>
       <r>    6.9420    1.0000 </r>
       <r>    8.8596    0.0000 </r>
       <r>    8.8596    0.0000 </r>
       <r>    9.7209    0.0000 </r>
       <r>   10.0938    0.0000 </r>
       <r>   10.0938    0.0000 </r>
       <r>   18.3324    0.0000 </r>
       <r>   18.3324    0.0000 </r>
       <r>   18.6343    0.0000 </r>
       <r>   25.5123    0.0000 </r>
       <r>   25.5123    0.0000 </r>
       <r>   30.4339    0.0000 </r>
       <r>   30.4339    0.0000 </r>
       <r>   31.0221    0.0000 </r>
       <r>   32.1732    0.0000 </r>
       <r>   37.6399    0.0000 </r>
       <r>   37.6399    0.0000 </r>
       <r>   39.3734    0.0000 </r>
       <r>   41.1675    0.0000 </r>
      </set>
      <set comment="kpoint 3">
       <r>    0.6726    1.0000 </r>
       <r>    3.8087    1.0000 </r>
       <r>    3.8087    1.0000 </r>
       <r>    6.5294    1.0000 </r>
       <r>    6.5294    1.0000 </r>
       <r>    7.4289    0.0031 </r>
       <r>    8.6182    0.0000 </r>
       <r>    8.7906    0.0000 </r>
       <r>    8.7906    0.0000 </r>
       <r>    9.8851    0.0000 </r>
       <r>    9.8851    0.0000 </r>
       <r>   17.9416    0.0000 </r>
       <r>   17.9416    0.0000 </r>
       <r>   18.9192    0.0000 </r>
       <r>   26.6032    0.0000 </r>
       <r>   26.6032    0.0000 </r>
       <r>   29.2217    0.0000 </r>
       <r>   29.2217    0.0000 </r>
       <r>   31.5396    0.0000 </r>
       <r>   33.5549    0.0000 </r>
       <r>   36.1868    0.0000 </r>
       <r>   38.2775    0.0000 </r>
       <r>   38.2775    0.0000 </r>
       <r>   41.0295    0.0000 </r>
      </set>
      <set comment="kpoint 4">
       <r>    1.5732    1.0000 </r>
       <r>    4.2888    1.0000 </r>
       <r>    4.2888    1.0000 </r>
       <r>    6.2112    1.0000 </r>
       <r>    6.2112    1.0000 </r>
       <r>    7.3085    0.7462 </r>
       <r>    8.2190    0.0000 </r>
       <r>    8.7781    0.0000 </r>
       <r>    8.7781    0.0000 </r>
       <r>    9.6111    0.0000 </r>
       <r>    9.6111    0.0000 </r>
       <r>   17.4437    0.0000 </r>
       <r>   17.4437    0.0000 </r>
       <r>   19.1350    0.0000 </r>
       <r>   27.5039    0.0000 </r>
       <r>   27.5039    0.0000 </r>
       <r>   28.2442    0.0000 </r>
       <r>   28.2442    0.0000 </r>
       <r>   32.4020    0.0000 </r>
       <r>   32.8844    0.0000 </r>
       <r>   35.1922    0.0000 </r>
       <r>   39.4768    0.0000 </r>
       <r>   39.4768    0.0000 </r>
       <r>   40.9677    0.0000 </r>
      </set>
      <set comment="kpoint 5">
       <r>    2.6719    1.0000 </r>
       <r>    4.8330    1.0000 </r>
       <r>    4.8330    1.0000 </r>
       <r>    5.8314    1.0000 </r>
       <r>    5.8314    1.0000 </r>
       <r>    6.1220    1.0000 </r>
       <r>    8.8479    0.0000 </r>
       <r>    8.8479    0.0000 </r>
       <r>    9.2799    0.0000 </r>
       <r>    9.3531    0.0000 </r>
       <r>    9.3531    0.0000 </r>
       <r>   16.9538    0.0000 </r>
       <r>   16.9538    0.0000 </r>
       <r>   19.2389    0.0000 </r>
       <r>   25.6316    0.0000 </r>
       <r>   25.6316    0.0000 </r>
       <r>   29.6986    0.0000 </r>
       <r>   30.3212    0.0000 </r>
       <r>   30.3212    0.0000 </r>
       <r>   33.6092    0.0000 </r>
       <r>   34.5657    0.0000 </r>
       <r>   40.4476    0.0000 </r>
       <r>   40.4476    0.0000 </r>
       <r>   40.6828    0.0000 </r>
      </set>
      <set comment="kpoint 6">
       <r>    3.8158    1.0000 </r>
       <r>    5.2527    1.0000 </r>
       <r>    5.3125    1.0000 </r>
       <r>    5.3125    1.0000 </r>
       <r>    5.4881    1.0000 </r>
       <r>    5.4881    1.0000 </r>
       <r>    8.9694    0.0000 </r>
       <r>    8.9694    0.0000 </r>
       <r>    9.1872    0.0000 </r>
       <r>    9.1872    0.0000 </r>
       <r>   10.5763    0.0000 </r>
       <r>   16.5823    0.0000 </r>
       <r>   16.5823    0.0000 </r>
       <r>   19.2743    0.0000 </r>
       <r>   23.8026    0.0000 </r>
       <r>   23.8026    0.0000 </r>
       <r>   26.7980    0.0000 </r>
       <r>   31.4246    0.0000 </r>
       <r>   32.7632    0.0000 </r>
       <r>   32.7632    0.0000 </r>
       <r>   35.1608    0.0000 </r>
       <r>   41.1091    0.0000 </r>
       <r>   41.1091    0.0000 </r>
       <r>   43.0002    0.0000 </r>
      </set>
      <set comment="kpoint 7">
       <r>    4.7904    1.0000 </r>
       <r>    4.8095    1.0000 </r>
       <r>    5.2561    1.0000 </r>
       <r>    5.2561    1.0000 </r>
       <r>    5.6012    1.0000 </r>
       <r>    5.6012    1.0000 </r>
       <r>    9.1007    0.0000 </r>
       <r>    9.1007    0.0000 </r>
       <r>    9.1534    0.0000 </r>
       <r>    9.1534    0.0000 </r>
       <r>   12.0932    0.0000 </r>
       <r>   16.4456    0.0000 </r>
       <r>   16.4456    0.0000 </r>
       <r>   19.2932    0.0000 </r>
       <r>   22.1040    0.0000 </r>
       <r>   22.1040    0.0000 </r>
       <r>   24.3352    0.0000 </r>
       <r>   27.9600    0.0000 </r>
       <r>   35.5251    0.0000 </r>
       <r>   35.5251    0.0000 </r>
       <r>   37.0566    0.0000 </r>
       <r>   41.8636    0.0000 </r>
       <r>   41.8636    0.0000 </r>
       <r>   45.3528    0.0000 </r>
      </set>
      <set comment="kpoint 8">
       <r>    4.7342    1.0000 </r>
       <r>    5.1685    1.0000 </r>
       <r>    5.1685    1.0000 </r>
       <r>    5.4436    1.0000 </r>
       <r>    5.6569    1.0000 </r>
       <r>    5.6569    1.0000 </r>
       <r>    9.2106    0.0000 </r>
       <r>    9.2106    0.0000 </r>
       <r>    9.2131    0.0000 </r>
       <r>    9.2131    0.0000 </r>
       <r>   13.8561    0.0000 </r>
       <r>   16.6407    0.0000 </r>
       <r>   16.6407    0.0000 </r>
       <r>   19.3236    0.0000 </r>
       <r>   20.5710    0.0000 </r>
       <r>   20.5710    0.0000 </r>
       <r>   22.4425    0.0000 </r>
       <r>   24.6718    0.0000 </r>
       <r>   38.5682    0.0000 </r>
       <r>   38.5682    0.0000 </r>
       <r>   39.2960    0.0000 </r>
       <r>   42.8476    0.0000 </r>
       <r>   42.8476    0.0000 </r>
       <r>   45.4702    0.0000 </r>
      </set>
      <set comment="kpoint 9">
       <r>    4.9901    1.0000 </r>
       <r>    5.2189    1.0000 </r>
       <r>    5.2189    1.0000 </r>
       <r>    5.5442    1.0000 </r>
       <r>    5.5442    1.0000 </r>
       <r>    5.6008    1.0000 </r>
       <r>    9.2809    0.0000 </r>
       <r>    9.2809    0.0000 </r>
       <r>    9.2817    0.0000 </r>
       <r>    9.2817    0.0000 </r>
       <r>   15.8951    0.0000 </r>
       <r>   17.1994    0.0000 </r>
       <r>   17.1994    0.0000 </r>
       <r>   19.2218    0.0000 </r>
       <r>   19.2218    0.0000 </r>
       <r>   19.2665    0.0000 </r>
       <r>   21.1922    0.0000 </r>
       <r>   21.8428    0.0000 </r>
       <r>   41.8256    0.0000 </r>
       <r>   41.8256    0.0000 </r>
       <r>   41.8780    0.0000 </r>
       <r>   44.0782    0.0000 </r>
       <r>   44.0782    0.0000 </r>
       <r>   45.7981    0.0000 </r>
      </set>
      <set comment="kpoint 10">
       <r>    5.3672    1.0000 </r>
       <r>    5.3672    1.0000 </r>
       <r>    5.3672    1.0000 </r>
       <r>    5.3672    1.0000 </r>
       <r>    5.3672    1.0000 </r>
       <r>    5.3672    1.0000 </r>
       <r>    9.3065    0.0000 </r>
       <r>    9.3065    0.0000 </r>
       <r>    9.3065    0.0000 </r>
       <r>    9.3065    0.0000 </r>
       <r>   18.0817    0.0000 </r>
       <r>   18.0817    0.0000 </r>
       <r>   18.0817    0.0000 </r>
       <r>   18.0817    0.0000 </r>
       <r>   18.0817    0.0000 </r>
       <r>   18.0817    0.0000 </r>
       <r>   20.6650    0.0000 </r>
       <r>   20.6650    0.0000 </r>
       <r>   44.8016    0.0000 </r>
       <r>   44.8016    0.0000 </r>
       <r>   44.8016    0.0000 </r>
       <r>   44.8016    0.0000 </r>
       <r>   44.8016    0.0000 </r>
       <r>   44.8017    0.0000 </r>
      </set>
      <set comment="kpoint 11">
       <r>    5.3672    1.0000 </r>
       <r>    5.3672    1.0000 </r>
       <r>    5.3672    1.0000 </r>
       <r>    5.3672    1.0000 </r>
       <r>    5.3672    1.0000 </r>
       <r>    5.3672    1.0000 </r>
       <r>    9.3065    0.0000 </r>
       <r>    9.3065    0.0000 </r>
       <r>    9.3065    0.0000 </r>
       <r>    9.3065    0.0000 </r>
       <r>   18.0817    0.0000 </r>
       <r>   18.0817    0.0000 </r>
       <r>   18.0817    0.0000 </r>
       <r>   18.0817    0.0000 </r>
       <r>   18.0817    0.0000 </r>
       <r>   18.0817    0.0000 </r>
       <r>   20.6650    0.0000 </r>
       <r>   20.6650    0.0000 </r>
       <r>   44.8016    0.0000 </r>
       <r>   44.8016    0.0000 </r>
       <r>   44.8016    0.0000 </r>
       <r>   44.8016    0.0000 </r>
       <r>   44.8016    0.0000 </r>
       <r>   44.8017    0.0000 </r>
      </set>
      <set comment="kpoint 12">
       <r>    5.1164    1.0000 </r>
       <r>    5.1164    1.0000 </r>
       <r>    5.3525    1.0000 </r>
       <r>    5.3525    1.0000 </r>
       <r>    5.6056    1.0000 </r>
       <r>    5.6056    1.0000 </r>
       <r>    9.2822    0.0000 </r>
       <r>    9.2822    0.0000 </r>
       <r>    9.2973    0.0000 </r>
       <r>    9.2973    0.0000 </r>
       <r>   16.5949    0.0000 </r>
       <r>   16.5949    0.0000 </r>
       <r>   18.2053    0.0000 </r>
       <r>   18.2053    0.0000 </r>
       <r>   19.2786    0.0000 </r>
       <r>   19.2786    0.0000 </r>
       <r>   21.2351    0.0000 </r>
       <r>   21.2351    0.0000 </r>
       <r>   42.1505    0.0000 </r>
       <r>   42.1505    0.0000 </r>
       <r>   43.4360    0.0000 </r>
       <r>   43.4360    0.0000 </r>
       <r>   45.5615    0.0000 </r>
       <r>   45.5616    0.0000 </r>
      </set>
      <set comment="kpoint 13">
       <r>    4.8778    1.0000 </r>
       <r>    4.8778    1.0000 </r>
       <r>    5.3178    1.0000 </r>
       <r>    5.3178    1.0000 </r>
       <r>    5.8025    1.0000 </r>
       <r>    5.8025    1.0000 </r>
       <r>    9.2020    0.0000 </r>
       <r>    9.2020    0.0000 </r>
       <r>    9.2823    0.0000 </r>
       <r>    9.2823    0.0000 </r>
       <r>   15.1821    0.0000 </r>
       <r>   15.1821    0.0000 </r>
       <r>   18.5730    0.0000 </r>
       <r>   18.5730    0.0000 </r>
       <r>   19.8920    0.0000 </r>
       <r>   19.8920    0.0000 </r>
       <r>   22.8663    0.0000 </r>
       <r>   22.8663    0.0000 </r>
       <r>   39.4698    0.0000 </r>
       <r>   39.4698    0.0000 </r>
       <r>   41.6297    0.0000 </r>
       <r>   41.6297    0.0000 </r>
       <r>   45.5270    0.0000 </r>
       <r>   45.5276    0.0000 </r>
      </set>
      <set comment="kpoint 14">
       <r>    4.6635    1.0000 </r>
       <r>    4.6635    1.0000 </r>
       <r>    5.2871    1.0000 </r>
       <r>    5.2871    1.0000 </r>
       <r>    5.9399    1.0000 </r>
       <r>    5.9399    1.0000 </r>
       <r>    9.0506    0.0000 </r>
       <r>    9.0506    0.0000 </r>
       <r>    9.2908    0.0000 </r>
       <r>    9.2908    0.0000 </r>
       <r>   13.9145    0.0000 </r>
       <r>   13.9145    0.0000 </r>
       <r>   19.1732    0.0000 </r>
       <r>   19.1732    0.0000 </r>
       <r>   20.3989    0.0000 </r>
       <r>   20.3989    0.0000 </r>
       <r>   24.9791    0.0000 </r>
       <r>   24.9791    0.0000 </r>
       <r>   36.9946    0.0000 </r>
       <r>   36.9946    0.0000 </r>
       <r>   39.8583    0.0000 </r>
       <r>   39.8583    0.0000 </r>
       <r>   45.2834    0.0000 </r>
       <r>   45.2852    0.0000 </r>
      </set>
      <set comment="kpoint 15">
       <r>    4.4705    1.0000 </r>
       <r>    4.4705    1.0000 </r>
       <r>    5.2884    1.0000 </r>
       <r>    5.2884    1.0000 </r>
       <r>    6.0351    1.0000 </r>
       <r>    6.0351    1.0000 </r>
       <r>    8.8178    0.0000 </r>
       <r>    8.8178    0.0000 </r>
       <r>    9.3411    0.0000 </r>
       <r>    9.3411    0.0000 </r>
       <r>   12.7915    0.0000 </r>
       <r>   12.7915    0.0000 </r>
       <r>   19.9852    0.0000 </r>
       <r>   19.9852    0.0000 </r>
       <r>   21.0269    0.0000 </r>
       <r>   21.0269    0.0000 </r>
       <r>   27.2840    0.0000 </r>
       <r>   27.2840    0.0000 </r>
       <r>   34.7516    0.0000 </r>
       <r>   34.7516    0.0000 </r>
       <r>   38.1283    0.0000 </r>
       <r>   38.1283    0.0000 </r>
       <r>   44.7436    0.0000 </r>
       <r>   44.7437    0.0000 </r>
      </set>
      <set comment="kpoint 16">
       <r>    4.2855    1.0000 </r>
       <r>    4.2855    1.0000 </r>
       <r>    5.3441    1.0000 </r>
       <r>    5.3441    1.0000 </r>
       <r>    6.1482    1.0000 </r>
       <r>    6.1482    1.0000 </r>
       <r>    8.5076    0.0000 </r>
       <r>    8.5076    0.0000 </r>
       <r>    9.4103    0.0000 </r>
       <r>    9.4103    0.0000 </r>
       <r>   11.8076    0.0000 </r>
       <r>   11.8076    0.0000 </r>
       <r>   20.9800    0.0000 </r>
       <r>   20.9800    0.0000 </r>
       <r>   21.8346    0.0000 </r>
       <r>   21.8346    0.0000 </r>
       <r>   29.5719    0.0000 </r>
       <r>   29.5719    0.0000 </r>
       <r>   32.7301    0.0000 </r>
       <r>   32.7301    0.0000 </r>
       <r>   36.5358    0.0000 </r>
       <r>   36.5358    0.0000 </r>
       <r>   43.9602    0.0000 </r>
       <r>   43.9602    0.0000 </r>
      </set>
      <set comment="kpoint 17">
       <r>    4.1036    1.0000 </r>
       <r>    4.1036    1.0000 </r>
       <r>    5.4645    1.0000 </r>
       <r>    5.4645    1.0000 </r>
       <r>    6.3463    1.0000 </r>
       <r>    6.3463    1.0000 </r>
       <r>    8.1417    0.0000 </r>
       <r>    8.1417    0.0000 </r>
       <r>    9.4108    0.0000 </r>
       <r>    9.4108    0.0000 </r>
       <r>   11.0025    0.0000 </r>
       <r>   11.0025    0.0000 </r>
       <r>   22.1240    0.0000 </r>
       <r>   22.1240    0.0000 </r>
       <r>   22.8434    0.0000 </r>
       <r>   22.8434    0.0000 </r>
       <r>   30.9005    0.0000 </r>
       <r>   30.9005    0.0000 </r>
       <r>   31.1409    0.0000 </r>
       <r>   31.1409    0.0000 </r>
       <r>   35.7426    0.0000 </r>
       <r>   35.7426    0.0000 </r>
       <r>   43.1158    0.0000 </r>
       <r>   43.1158    0.0000 </r>
      </set>
      <set comment="kpoint 18">
       <r>    3.9418    1.0000 </r>
       <r>    3.9418    1.0000 </r>
       <r>    5.6408    1.0000 </r>
       <r>    5.6408    1.0000 </r>
       <r>    6.6595    1.0000 </r>
       <r>    6.6595    1.0000 </r>
       <r>    7.7612    0.0000 </r>
       <r>    7.7612    0.0000 </r>
       <r>    9.1715    0.0000 </r>
       <r>    9.1715    0.0000 </r>
       <r>   10.5138    0.0000 </r>
       <r>   10.5138    0.0000 </r>
       <r>   23.3836    0.0000 </r>
       <r>   23.3836    0.0000 </r>
       <r>   24.0526    0.0000 </r>
       <r>   24.0526    0.0000 </r>
       <r>   29.2237    0.0000 </r>
       <r>   29.2237    0.0000 </r>
       <r>   30.6826    0.0000 </r>
       <r>   30.6826    0.0000 </r>
       <r>   37.0628    0.0000 </r>
       <r>   37.0628    0.0000 </r>
       <r>   42.3882    0.0000 </r>
       <r>   42.3882    0.0000 </r>
      </set>
      <set comment="kpoint 19">
       <r>    3.8291    1.0000 </r>
       <r>    3.8291    1.0000 </r>
       <r>    5.8287    1.0000 </r>
       <r>    5.8287    1.0000 </r>
       <r>    7.0515    1.0000 </r>
       <r>    7.0515    1.0000 </r>
       <r>    7.4383    0.0013 </r>
       <r>    7.4383    0.0013 </r>
       <r>    8.6941    0.0000 </r>
       <r>    8.6941    0.0000 </r>
       <r>   10.3595    0.0000 </r>
       <r>   10.3595    0.0000 </r>
       <r>   24.7273    0.0000 </r>
       <r>   24.7273    0.0000 </r>
       <r>   25.4043    0.0000 </r>
       <r>   25.4043    0.0000 </r>
       <r>   27.6624    0.0000 </r>
       <r>   27.6624    0.0000 </r>
       <r>   29.2150    0.0000 </r>
       <r>   29.2150    0.0000 </r>
       <r>   39.4988    0.0000 </r>
       <r>   39.4988    0.0000 </r>
       <r>   41.9027    0.0000 </r>
       <r>   41.9027    0.0000 </r>
      </set>
      <set comment="kpoint 20">
       <r>    3.7887    1.0000 </r>
       <r>    3.7887    1.0000 </r>
       <r>    5.9206    1.0000 </r>
       <r>    5.9206    1.0000 </r>
       <r>    7.2992    0.8229 </r>
       <r>    7.2992    0.8229 </r>
       <r>    7.2992    0.8229 </r>
       <r>    7.2992    0.8229 </r>
       <r>    8.3925    0.0000 </r>
       <r>    8.3925    0.0000 </r>
       <r>   10.3351    0.0000 </r>
       <r>   10.3351    0.0000 </r>
       <r>   25.9629    0.0000 </r>
       <r>   25.9629    0.0000 </r>
       <r>   26.3602    0.0000 </r>
       <r>   26.3602    0.0000 </r>
       <r>   26.3602    0.0000 </r>
       <r>   26.3602    0.0000 </r>
       <r>   28.1686    0.0000 </r>
       <r>   28.1686    0.0000 </r>
       <r>   41.7327    0.0000 </r>
       <r>   41.7327    0.0000 </r>
       <r>   41.7327    0.0000 </r>
       <r>   41.7329    0.0000 </r>
      </set>
      <set comment="kpoint 21">
       <r>    3.7887    1.0000 </r>
       <r>    3.7887    1.0000 </r>
       <r>    5.9206    1.0000 </r>
       <r>    5.9206    1.0000 </r>
       <r>    7.2992    0.8229 </r>
       <r>    7.2992    0.8229 </r>
       <r>    7.2992    0.8229 </r>
       <r>    7.2992    0.8229 </r>
       <r>    8.3925    0.0000 </r>
       <r>    8.3925    0.0000 </r>
       <r>   10.3351    0.0000 </r>
       <r>   10.3351    0.0000 </r>
       <r>   25.9629    0.0000 </r>
       <r>   25.9629    0.0000 </r>
       <r>   26.3602    0.0000 </r>
       <r>   26.3602    0.0000 </r>
       <r>   26.3602    0.0000 </r>
       <r>   26.3602    0.0000 </r>
       <r>   28.1686    0.0000 </r>
       <r>   28.1686    0.0000 </r>
       <r>   41.7327    0.0000 </r>
       <r>   41.7327    0.0000 </r>
       <r>   41.7327    0.0000 </r>
       <r>   41.7327    0.0000 </r>
      </set>
      <set comment="kpoint 22">
       <r>    3.5684    1.0000 </r>
       <r>    3.9897    1.0000 </r>
       <r>    5.6659    1.0000 </r>
       <r>    6.1241    1.0000 </r>
       <r>    7.1202    1.0000 </r>
       <r>    7.2399    0.9954 </r>
       <r>    7.3403    0.4064 </r>
       <r>    7.4509    0.0004 </r>
       <r>    8.3361    0.0000 </r>
       <r>    8.6294    0.0000 </r>
       <r>   10.1255    0.0000 </r>
       <r>   10.5985    0.0000 </r>
       <r>   25.0657    0.0000 </r>
       <r>   25.4725    0.0000 </r>
       <r>   25.7094    0.0000 </r>
       <r>   26.5344    0.0000 </r>
       <r>   26.5955    0.0000 </r>
       <r>   27.3815    0.0000 </r>
       <r>   28.1974    0.0000 </r>
       <r>   28.8852    0.0000 </r>
       <r>   40.2934    0.0000 </r>
       <r>   41.1369    0.0000 </r>
       <r>   41.1897    0.0000 </r>
       <r>   42.4481    0.0000 </r>
      </set>
      <set comment="kpoint 23">
       <r>    3.3449    1.0000 </r>
       <r>    4.1655    1.0000 </r>
       <r>    5.4135    1.0000 </r>
       <r>    6.2103    1.0000 </r>
       <r>    6.8742    1.0000 </r>
       <r>    7.2639    0.9728 </r>
       <r>    7.3283    0.5410 </r>
       <r>    7.6505    0.0000 </r>
       <r>    8.4129    0.0000 </r>
       <r>    8.9733    0.0000 </r>
       <r>    9.9426    0.0000 </r>
       <r>   10.9583    0.0000 </r>
       <r>   23.9583    0.0000 </r>
       <r>   24.3702    0.0000 </r>
       <r>   25.3937    0.0000 </r>
       <r>   26.4313    0.0000 </r>
       <r>   26.9699    0.0000 </r>
       <r>   28.5024    0.0000 </r>
       <r>   28.5384    0.0000 </r>
       <r>   30.0784    0.0000 </r>
       <r>   38.6581    0.0000 </r>
       <r>   40.2833    0.0000 </r>
       <r>   40.6774    0.0000 </r>
       <r>   42.8910    0.0000 </r>
      </set>
      <set comment="kpoint 24">
       <r>    3.1419    1.0000 </r>
       <r>    4.3200    1.0000 </r>
       <r>    5.1919    1.0000 </r>
       <r>    6.1812    1.0000 </r>
       <r>    6.6271    1.0000 </r>
       <r>    7.1174    1.0000 </r>
       <r>    7.5493    0.0000 </r>
       <r>    7.8753    0.0000 </r>
       <r>    8.5591    0.0000 </r>
       <r>    9.3051    0.0000 </r>
       <r>    9.7723    0.0000 </r>
       <r>   11.4628    0.0000 </r>
       <r>   22.8596    0.0000 </r>
       <r>   23.2737    0.0000 </r>
       <r>   25.1203    0.0000 </r>
       <r>   26.2022    0.0000 </r>
       <r>   27.4545    0.0000 </r>
       <r>   28.9754    0.0000 </r>
       <r>   29.6092    0.0000 </r>
       <r>   31.3539    0.0000 </r>
       <r>   37.1063    0.0000 </r>
       <r>   39.2826    0.0000 </r>
       <r>   40.3707    0.0000 </r>
       <r>   42.1960    0.0000 </r>
      </set>
      <set comment="kpoint 25">
       <r>    2.9833    1.0000 </r>
       <r>    4.4625    1.0000 </r>
       <r>    5.0172    1.0000 </r>
       <r>    6.0967    1.0000 </r>
       <r>    6.4009    1.0000 </r>
       <r>    6.9228    1.0000 </r>
       <r>    7.8290    0.0000 </r>
       <r>    8.1131    0.0000 </r>
       <r>    8.7423    0.0000 </r>
       <r>    9.5505    0.0000 </r>
       <r>    9.6092    0.0000 </r>
       <r>   12.1334    0.0000 </r>
       <r>   21.7797    0.0000 </r>
       <r>   22.2458    0.0000 </r>
       <r>   24.9005    0.0000 </r>
       <r>   25.9923    0.0000 </r>
       <r>   27.9852    0.0000 </r>
       <r>   29.4524    0.0000 </r>
       <r>   30.6770    0.0000 </r>
       <r>   32.3604    0.0000 </r>
       <r>   35.9502    0.0000 </r>
       <r>   38.2140    0.0000 </r>
       <r>   40.2328    0.0000 </r>
       <r>   41.6627    0.0000 </r>
      </set>
      <set comment="kpoint 26">
       <r>    2.8891    1.0000 </r>
       <r>    4.6025    1.0000 </r>
       <r>    4.8994    1.0000 </r>
       <r>    5.9972    1.0000 </r>
       <r>    6.1982    1.0000 </r>
       <r>    6.6897    1.0000 </r>
       <r>    8.1131    0.0000 </r>
       <r>    8.3556    0.0000 </r>
       <r>    8.9419    0.0000 </r>
       <r>    9.4581    0.0000 </r>
       <r>    9.6879    0.0000 </r>
       <r>   12.9476    0.0000 </r>
       <r>   20.7222    0.0000 </r>
       <r>   21.3193    0.0000 </r>
       <r>   24.7409    0.0000 </r>
       <r>   25.8192    0.0000 </r>
       <r>   28.5657    0.0000 </r>
       <r>   29.9472    0.0000 </r>
       <r>   31.6786    0.0000 </r>
       <r>   32.2696    0.0000 </r>
       <r>   36.0164    0.0000 </r>
       <r>   37.1067    0.0000 </r>
       <r>   40.2738    0.0000 </r>
       <r>   41.3212    0.0000 </r>
      </set>
      <set comment="kpoint 27">
       <r>    2.8715    1.0000 </r>
       <r>    4.7464    1.0000 </r>
       <r>    4.8448    1.0000 </r>
       <r>    5.8991    1.0000 </r>
       <r>    6.0171    1.0000 </r>
       <r>    6.4262    1.0000 </r>
       <r>    8.3729    0.0000 </r>
       <r>    8.5961    0.0000 </r>
       <r>    9.1101    0.0000 </r>
       <r>    9.3602    0.0000 </r>
       <r>    9.7186    0.0000 </r>
       <r>   13.8646    0.0000 </r>
       <r>   19.6892    0.0000 </r>
       <r>   20.5224    0.0000 </r>
       <r>   24.6452    0.0000 </r>
       <r>   25.6728    0.0000 </r>
       <r>   29.2016    0.0000 </r>
       <r>   30.4427    0.0000 </r>
       <r>   31.2015    0.0000 </r>
       <r>   32.5828    0.0000 </r>
       <r>   35.9914    0.0000 </r>
       <r>   37.1845    0.0000 </r>
       <r>   40.4844    0.0000 </r>
       <r>   41.1690    0.0000 </r>
      </set>
      <set comment="kpoint 28">
       <r>    2.9340    1.0000 </r>
       <r>    4.8573    1.0000 </r>
       <r>    4.8937    1.0000 </r>
       <r>    5.8082    1.0000 </r>
       <r>    5.8581    1.0000 </r>
       <r>    6.1430    1.0000 </r>
       <r>    8.5940    0.0000 </r>
       <r>    8.8292    0.0000 </r>
       <r>    9.0901    0.0000 </r>
       <r>    9.4708    0.0000 </r>
       <r>    9.6473    0.0000 </r>
       <r>   14.8429    0.0000 </r>
       <r>   18.6818    0.0000 </r>
       <r>   19.8834    0.0000 </r>
       <r>   24.6125    0.0000 </r>
       <r>   25.5112    0.0000 </r>
       <r>   29.8987    0.0000 </r>
       <r>   29.9736    0.0000 </r>
       <r>   30.9167    0.0000 </r>
       <r>   33.3551    0.0000 </r>
       <r>   34.9006    0.0000 </r>
       <r>   38.6246    0.0000 </r>
       <r>   40.7895    0.0000 </r>
       <r>   41.1958    0.0000 </r>
      </set>
      <set comment="kpoint 29">
       <r>    3.0680    1.0000 </r>
       <r>    4.9387    1.0000 </r>
       <r>    5.0290    1.0000 </r>
       <r>    5.7254    1.0000 </r>
       <r>    5.7288    1.0000 </r>
       <r>    5.8606    1.0000 </r>
       <r>    8.7709    0.0000 </r>
       <r>    8.9908    0.0000 </r>
       <r>    9.0500    0.0000 </r>
       <r>    9.4847    0.0000 </r>
       <r>    9.6817    0.0000 </r>
       <r>   15.8340    0.0000 </r>
       <r>   17.7006    0.0000 </r>
       <r>   19.4386    0.0000 </r>
       <r>   24.6361    0.0000 </r>
       <r>   25.2373    0.0000 </r>
       <r>   28.9079    0.0000 </r>
       <r>   30.6631    0.0000 </r>
       <r>   31.3219    0.0000 </r>
       <r>   33.8863    0.0000 </r>
       <r>   33.9572    0.0000 </r>
       <r>   39.9547    0.0000 </r>
       <r>   40.9506    0.0000 </r>
       <r>   41.3887    0.0000 </r>
      </set>
      <set comment="kpoint 30">
       <r>    3.2494    1.0000 </r>
       <r>    5.0896    1.0000 </r>
       <r>    5.0896    1.0000 </r>
       <r>    5.6399    1.0000 </r>
       <r>    5.6496    1.0000 </r>
       <r>    5.6496    1.0000 </r>
       <r>    8.9049    0.0000 </r>
       <r>    8.9049    0.0000 </r>
       <r>    9.2547    0.0000 </r>
       <r>    9.2547    0.0000 </r>
       <r>    9.9004    0.0000 </r>
       <r>   16.7460    0.0000 </r>
       <r>   16.7460    0.0000 </r>
       <r>   19.2616    0.0000 </r>
       <r>   24.7045    0.0000 </r>
       <r>   24.7045    0.0000 </r>
       <r>   28.2029    0.0000 </r>
       <r>   31.4998    0.0000 </r>
       <r>   31.4998    0.0000 </r>
       <r>   33.1074    0.0000 </r>
       <r>   34.3420    0.0000 </r>
       <r>   40.7834    0.0000 </r>
       <r>   40.7834    0.0000 </r>
       <r>   41.7283    0.0000 </r>
      </set>
      <set comment="kpoint 31">
       <r>    3.2494    1.0000 </r>
       <r>    5.0896    1.0000 </r>
       <r>    5.0896    1.0000 </r>
       <r>    5.6399    1.0000 </r>
       <r>    5.6496    1.0000 </r>
       <r>    5.6496    1.0000 </r>
       <r>    8.9049    0.0000 </r>
       <r>    8.9049    0.0000 </r>
       <r>    9.2547    0.0000 </r>
       <r>    9.2547    0.0000 </r>
       <r>    9.9004    0.0000 </r>
       <r>   16.7460    0.0000 </r>
       <r>   16.7460    0.0000 </r>
       <r>   19.2616    0.0000 </r>
       <r>   24.7045    0.0000 </r>
       <r>   24.7045    0.0000 </r>
       <r>   28.2029    0.0000 </r>
       <r>   31.4998    0.0000 </r>
       <r>   31.4998    0.0000 </r>
       <r>   33.1074    0.0000 </r>
       <r>   34.3420    0.0000 </r>
       <r>   40.7834    0.0000 </r>
       <r>   40.7834    0.0000 </r>
       <r>   41.7283    0.0000 </r>
      </set>
      <set comment="kpoint 32">
       <r>    2.6719    1.0000 </r>
       <r>    4.8330    1.0000 </r>
       <r>    4.8330    1.0000 </r>
       <r>    5.8314    1.0000 </r>
       <r>    5.8314    1.0000 </r>
       <r>    6.1220    1.0000 </r>
       <r>    8.8479    0.0000 </r>
       <r>    8.8479    0.0000 </r>
       <r>    9.2799    0.0000 </r>
       <r>    9.3531    0.0000 </r>
       <r>    9.3531    0.0000 </r>
       <r>   16.9538    0.0000 </r>
       <r>   16.9538    0.0000 </r>
       <r>   19.2389    0.0000 </r>
       <r>   25.6316    0.0000 </r>
       <r>   25.6316    0.0000 </r>
       <r>   29.6986    0.0000 </r>
       <r>   30.3212    0.0000 </r>
       <r>   30.3212    0.0000 </r>
       <r>   33.6092    0.0000 </r>
       <r>   34.5657    0.0000 </r>
       <r>   40.4476    0.0000 </r>
       <r>   40.4476    0.0000 </r>
       <r>   40.6828    0.0000 </r>
      </set>
      <set comment="kpoint 33">
       <r>    2.1064    1.0000 </r>
       <r>    4.5602    1.0000 </r>
       <r>    4.5602    1.0000 </r>
       <r>    6.0227    1.0000 </r>
       <r>    6.0227    1.0000 </r>
       <r>    6.6850    1.0000 </r>
       <r>    8.7179    0.0000 </r>
       <r>    8.8039    0.0000 </r>
       <r>    8.8039    0.0000 </r>
       <r>    9.4750    0.0000 </r>
       <r>    9.4750    0.0000 </r>
       <r>   17.1910    0.0000 </r>
       <r>   17.1910    0.0000 </r>
       <r>   19.1990    0.0000 </r>
       <r>   26.5712    0.0000 </r>
       <r>   26.5712    0.0000 </r>
       <r>   29.2335    0.0000 </r>
       <r>   29.2335    0.0000 </r>
       <r>   31.2658    0.0000 </r>
       <r>   32.9625    0.0000 </r>
       <r>   35.3814    0.0000 </r>
       <r>   40.0325    0.0000 </r>
       <r>   40.0325    0.0000 </r>
       <r>   40.3103    0.0000 </r>
      </set>
      <set comment="kpoint 34">
       <r>    1.5732    1.0000 </r>
       <r>    4.2888    1.0000 </r>
       <r>    4.2888    1.0000 </r>
       <r>    6.2112    1.0000 </r>
       <r>    6.2112    1.0000 </r>
       <r>    7.3085    0.7462 </r>
       <r>    8.2190    0.0000 </r>
       <r>    8.7781    0.0000 </r>
       <r>    8.7781    0.0000 </r>
       <r>    9.6111    0.0000 </r>
       <r>    9.6111    0.0000 </r>
       <r>   17.4437    0.0000 </r>
       <r>   17.4437    0.0000 </r>
       <r>   19.1350    0.0000 </r>
       <r>   27.5039    0.0000 </r>
       <r>   27.5039    0.0000 </r>
       <r>   28.2442    0.0000 </r>
       <r>   28.2442    0.0000 </r>
       <r>   32.4020    0.0000 </r>
       <r>   32.8844    0.0000 </r>
       <r>   35.1922    0.0000 </r>
       <r>   39.4768    0.0000 </r>
       <r>   39.4768    0.0000 </r>
       <r>   40.9677    0.0000 </r>
      </set>
      <set comment="kpoint 35">
       <r>    1.0901    1.0000 </r>
       <r>    4.0340    1.0000 </r>
       <r>    4.0340    1.0000 </r>
       <r>    6.3837    1.0000 </r>
       <r>    6.3837    1.0000 </r>
       <r>    7.7878    0.0000 </r>
       <r>    7.9649    0.0000 </r>
       <r>    8.7738    0.0000 </r>
       <r>    8.7738    0.0000 </r>
       <r>    9.7513    0.0000 </r>
       <r>    9.7513    0.0000 </r>
       <r>   17.6984    0.0000 </r>
       <r>   17.6984    0.0000 </r>
       <r>   19.0418    0.0000 </r>
       <r>   27.3633    0.0000 </r>
       <r>   27.3633    0.0000 </r>
       <r>   28.4010    0.0000 </r>
       <r>   28.4010    0.0000 </r>
       <r>   31.9277    0.0000 </r>
       <r>   34.4267    0.0000 </r>
       <r>   34.5330    0.0000 </r>
       <r>   38.8452    0.0000 </r>
       <r>   38.8452    0.0000 </r>
       <r>   41.1451    0.0000 </r>
      </set>
      <set comment="kpoint 36">
       <r>    0.6726    1.0000 </r>
       <r>    3.8087    1.0000 </r>
       <r>    3.8087    1.0000 </r>
       <r>    6.5294    1.0000 </r>
       <r>    6.5294    1.0000 </r>
       <r>    7.4289    0.0031 </r>
       <r>    8.6182    0.0000 </r>
       <r>    8.7906    0.0000 </r>
       <r>    8.7906    0.0000 </r>
       <r>    9.8851    0.0000 </r>
       <r>    9.8851    0.0000 </r>
       <r>   17.9416    0.0000 </r>
       <r>   17.9416    0.0000 </r>
       <r>   18.9192    0.0000 </r>
       <r>   26.6032    0.0000 </r>
       <r>   26.6032    0.0000 </r>
       <r>   29.2217    0.0000 </r>
       <r>   29.2217    0.0000 </r>
       <r>   31.5396    0.0000 </r>
       <r>   33.5549    0.0000 </r>
       <r>   36.1868    0.0000 </r>
       <r>   38.2775    0.0000 </r>
       <r>   38.2775    0.0000 </r>
       <r>   41.0295    0.0000 </r>
      </set>
      <set comment="kpoint 37">
       <r>    0.3337    1.0000 </r>
       <r>    3.6232    1.0000 </r>
       <r>    3.6232    1.0000 </r>
       <r>    6.6416    1.0000 </r>
       <r>    6.6416    1.0000 </r>
       <r>    7.1460    1.0000 </r>
       <r>    8.8228    0.0000 </r>
       <r>    8.8228    0.0000 </r>
       <r>    9.2221    0.0000 </r>
       <r>   10.0023    0.0000 </r>
       <r>   10.0023    0.0000 </r>
       <r>   18.1584    0.0000 </r>
       <r>   18.1584    0.0000 </r>
       <r>   18.7762    0.0000 </r>
       <r>   25.9799    0.0000 </r>
       <r>   25.9799    0.0000 </r>
       <r>   29.9158    0.0000 </r>
       <r>   29.9158    0.0000 </r>
       <r>   31.2377    0.0000 </r>
       <r>   32.7747    0.0000 </r>
       <r>   37.8153    0.0000 </r>
       <r>   37.8667    0.0000 </r>
       <r>   37.8667    0.0000 </r>
       <r>   41.0411    0.0000 </r>
      </set>
      <set comment="kpoint 38">
       <r>    0.0837    1.0000 </r>
       <r>    3.4854    1.0000 </r>
       <r>    3.4854    1.0000 </r>
       <r>    6.7189    1.0000 </r>
       <r>    6.7189    1.0000 </r>
       <r>    6.9420    1.0000 </r>
       <r>    8.8596    0.0000 </r>
       <r>    8.8596    0.0000 </r>
       <r>    9.7209    0.0000 </r>
       <r>   10.0938    0.0000 </r>
       <r>   10.0938    0.0000 </r>
       <r>   18.3324    0.0000 </r>
       <r>   18.3324    0.0000 </r>
       <r>   18.6343    0.0000 </r>
       <r>   25.5123    0.0000 </r>
       <r>   25.5123    0.0000 </r>
       <r>   30.4339    0.0000 </r>
       <r>   30.4339    0.0000 </r>
       <r>   31.0221    0.0000 </r>
       <r>   32.1732    0.0000 </r>
       <r>   37.6399    0.0000 </r>
       <r>   37.6399    0.0000 </r>
       <r>   39.3734    0.0000 </r>
       <r>   41.1675    0.0000 </r>
      </set>
      <set comment="kpoint 39">
       <r>   -0.0694    1.0000 </r>
       <r>    3.4005    1.0000 </r>
       <r>    3.4005    1.0000 </r>
       <r>    6.7632    1.0000 </r>
       <r>    6.7632    1.0000 </r>
       <r>    6.8188    1.0000 </r>
       <r>    8.8883    0.0000 </r>
       <r>    8.8883    0.0000 </r>
       <r>   10.0542    0.0000 </r>
       <r>   10.1520    0.0000 </r>
       <r>   10.1520    0.0000 </r>
       <r>   18.4463    0.0000 </r>
       <r>   18.4463    0.0000 </r>
       <r>   18.5267    0.0000 </r>
       <r>   25.2208    0.0000 </r>
       <r>   25.2208    0.0000 </r>
       <r>   30.7465    0.0000 </r>
       <r>   30.7465    0.0000 </r>
       <r>   30.8927    0.0000 </r>
       <r>   31.7965    0.0000 </r>
       <r>   37.5582    0.0000 </r>
       <r>   37.5582    0.0000 </r>
       <r>   40.7649    0.0000 </r>
       <r>   41.3856    0.0000 </r>
      </set>
      <set comment="kpoint 40">
       <r>   -0.1209    1.0000 </r>
       <r>    3.3718    1.0000 </r>
       <r>    3.3718    1.0000 </r>
       <r>    6.7776    1.0000 </r>
       <r>    6.7776    1.0000 </r>
       <r>    6.7776    1.0000 </r>
       <r>    8.8992    0.0000 </r>
       <r>    8.8992    0.0000 </r>
       <r>   10.1719    0.0000 </r>
       <r>   10.1719    0.0000 </r>
       <r>   10.1719    0.0000 </r>
       <r>   18.4861    0.0000 </r>
       <r>   18.4861    0.0000 </r>
       <r>   18.4861    0.0000 </r>
       <r>   25.1214    0.0000 </r>
       <r>   25.1214    0.0000 </r>
       <r>   30.8496    0.0000 </r>
       <r>   30.8496    0.0000 </r>
       <r>   30.8496    0.0000 </r>
       <r>   31.6684    0.0000 </r>
       <r>   37.5447    0.0000 </r>
       <r>   37.5447    0.0000 </r>
       <r>   41.5301    0.0000 </r>
       <r>   41.5301    0.0000 </r>
      </set>
     </set>
    </set>
   </array>
  </eigenvalues>
  <separator name="orbital magnetization" >
   <v name="MAGDIPOLOUT">      0.00000000      0.00000000      0.00000000</v>
  </separator>
  <dos>
   <i name="efermi">      7.33193425 </i>
   <total>
    <array>
     <dimension dim="1">gridpoints</dimension>
     <dimension dim="2">spin</dimension>
     <field>energy</field>
     <field>total</field>
     <field>integrated</field>
     <set>
      <set comment="spin 1">
       <r>    -2.4169     0.0000     0.0000 </r>
       <r>    -2.2485     0.0000     0.0000 </r>
       <r>    -2.0801     0.0000     0.0000 </r>
       <r>    -1.9118     0.0000     0.0000 </r>
       <r>    -1.7434     0.0000     0.0000 </r>
       <r>    -1.5750     0.0000     0.0000 </r>
       <r>    -1.4067     0.0000     0.0000 </r>
       <r>    -1.2383     0.0000     0.0000 </r>
       <r>    -1.0699     0.0000     0.0000 </r>
       <r>    -0.9015     0.0000     0.0000 </r>
       <r>    -0.7332     0.0000     0.0000 </r>
       <r>    -0.5648     0.0000     0.0000 </r>
       <r>    -0.3964     0.0000     0.0000 </r>
       <r>    -0.2281     0.0007     0.0001 </r>
       <r>    -0.0597     0.7490     0.1262 </r>
       <r>     0.1087     0.5924     0.2260 </r>
       <r>     0.2770     0.1590     0.2527 </r>
       <r>     0.4454     0.2805     0.3000 </r>
       <r>     0.6138     0.0287     0.3048 </r>
       <r>     0.7822     0.5648     0.3999 </r>
       <r>     0.9505     0.0006     0.4000 </r>
       <r>     1.1189     0.2352     0.4396 </r>
       <r>     1.2873     0.0618     0.4500 </r>
       <r>     1.4556     0.0003     0.4500 </r>
       <r>     1.6240     0.5489     0.5425 </r>
       <r>     1.7924     0.0447     0.5500 </r>
       <r>     1.9607     0.0000     0.5500 </r>
       <r>     2.1291     0.2197     0.5870 </r>
       <r>     2.2975     0.0772     0.6000 </r>
       <r>     2.4659     0.0000     0.6000 </r>
       <r>     2.6342     0.0852     0.6143 </r>
       <r>     2.8026     0.5184     0.7016 </r>
       <r>     2.9710     0.9423     0.8603 </r>
       <r>     3.1393     0.6667     0.9726 </r>
       <r>     3.3077     0.8148     1.1097 </r>
       <r>     3.4761     2.4814     1.5275 </r>
       <r>     3.6444     1.4507     1.7718 </r>
       <r>     3.8128     2.0403     2.1153 </r>
       <r>     3.9812     2.0695     2.4638 </r>
       <r>     4.1495     1.4422     2.7066 </r>
       <r>     4.3179     1.8310     3.0149 </r>
       <r>     4.4863     1.1385     3.2066 </r>
       <r>     4.6547     1.3691     3.4371 </r>
       <r>     4.8230     2.0375     3.7801 </r>
       <r>     4.9914     3.0360     4.2913 </r>
       <r>     5.1598     2.6587     4.7389 </r>
       <r>     5.3281     4.7492     5.5385 </r>
       <r>     5.4965     5.9858     6.5464 </r>
       <r>     5.6649     4.5468     7.3119 </r>
       <r>     5.8332     3.5175     7.9041 </r>
       <r>     6.0016     4.0297     8.5826 </r>
       <r>     6.1700     3.4146     9.1575 </r>
       <r>     6.3384     2.3503     9.5533 </r>
       <r>     6.5067     1.7715     9.8515 </r>
       <r>     6.6751     2.3950    10.2548 </r>
       <r>     6.8435     4.3533    10.9877 </r>
       <r>     7.0118     1.3231    11.2105 </r>
       <r>     7.1802     1.3655    11.4404 </r>
       <r>     7.3486     3.7479    12.0715 </r>
       <r>     7.5169     1.9840    12.4055 </r>
       <r>     7.6853     0.5231    12.4936 </r>
       <r>     7.8537     1.2226    12.6994 </r>
       <r>     8.0221     0.5848    12.7979 </r>
       <r>     8.1904     1.2666    13.0111 </r>
       <r>     8.3588     1.2298    13.2182 </r>
       <r>     8.5272     2.1691    13.5834 </r>
       <r>     8.6955     2.3035    13.9713 </r>
       <r>     8.8639     7.8074    15.2858 </r>
       <r>     9.0323     5.3643    16.1890 </r>
       <r>     9.2006     4.1728    16.8916 </r>
       <r>     9.3690    11.0003    18.7437 </r>
       <r>     9.5374     3.3822    19.3131 </r>
       <r>     9.7057     2.7823    19.7816 </r>
       <r>     9.8741     2.1863    20.1497 </r>
       <r>    10.0425     2.2045    20.5209 </r>
       <r>    10.2109     3.7611    21.1541 </r>
       <r>    10.3792     1.7574    21.4500 </r>
       <r>    10.5476     0.8744    21.5972 </r>
       <r>    10.7160     0.6103    21.7000 </r>
       <r>    10.8843     0.0058    21.7010 </r>
       <r>    11.0527     0.8380    21.8420 </r>
       <r>    11.2211     0.0473    21.8500 </r>
       <r>    11.3894     0.0056    21.8509 </r>
       <r>    11.5578     0.2903    21.8998 </r>
       <r>    11.7262     0.0074    21.9011 </r>
       <r>    11.8946     0.5835    21.9993 </r>
       <r>    12.0629     0.0692    22.0110 </r>
       <r>    12.2313     0.5280    22.0999 </r>
       <r>    12.3997     0.0008    22.1000 </r>
       <r>    12.5680     0.0000    22.1000 </r>
       <r>    12.7364     0.0354    22.1060 </r>
       <r>    12.9048     0.5916    22.2056 </r>
       <r>    13.0731     0.2638    22.2500 </r>
       <r>    13.2415     0.0001    22.2500 </r>
       <r>    13.4099     0.0000    22.2500 </r>
       <r>    13.5783     0.0000    22.2500 </r>
       <r>    13.7466     0.0004    22.2501 </r>
       <r>    13.9150     0.8565    22.3943 </r>
       <r>    14.0834     0.3310    22.4500 </r>
       <r>    14.2517     0.0000    22.4500 </r>
       <r>    14.4201     0.0000    22.4500 </r>
       <r>    14.5885     0.0000    22.4500 </r>
       <r>    14.7568     0.0022    22.4504 </r>
       <r>    14.9252     0.2918    22.4995 </r>
       <r>    15.0936     0.0066    22.5006 </r>
       <r>    15.2619     0.5832    22.5988 </r>
       <r>    15.4303     0.0071    22.6000 </r>
       <r>    15.5987     0.0000    22.6000 </r>
       <r>    15.7671     0.0087    22.6015 </r>
       <r>    15.9354     0.5469    22.6936 </r>
       <r>    16.1038     0.0383    22.7000 </r>
       <r>    16.2722     0.0000    22.7000 </r>
       <r>    16.4405     0.2631    22.7443 </r>
       <r>    16.6089     1.2884    22.9612 </r>
       <r>    16.7773     1.7883    23.2623 </r>
       <r>    16.9456     0.7091    23.3817 </r>
       <r>    17.1140     0.7160    23.5023 </r>
       <r>    17.2824     1.1660    23.6986 </r>
       <r>    17.4508     0.6960    23.8157 </r>
       <r>    17.6191     0.5110    23.9018 </r>
       <r>    17.7875     0.8748    24.0491 </r>
       <r>    17.9559     0.7866    24.1815 </r>
       <r>    18.1242     3.6687    24.7992 </r>
       <r>    18.2926     1.6404    25.0754 </r>
       <r>    18.4610     1.8654    25.3895 </r>
       <r>    18.6293     2.6889    25.8422 </r>
       <r>    18.7977     0.8568    25.9865 </r>
       <r>    18.9661     0.6244    26.0916 </r>
       <r>    19.1344     0.7356    26.2154 </r>
       <r>    19.3028     3.9745    26.8846 </r>
       <r>    19.4712     0.9293    27.0411 </r>
       <r>    19.6396     0.0767    27.0540 </r>
       <r>    19.8079     0.2831    27.1017 </r>
       <r>    19.9763     1.1127    27.2890 </r>
       <r>    20.1447     0.3622    27.3500 </r>
       <r>    20.3130     0.0045    27.3508 </r>
       <r>    20.4814     0.6236    27.4557 </r>
       <r>    20.6498     1.2516    27.6665 </r>
       <r>    20.8181     1.0890    27.8498 </r>
       <r>    20.9865     0.4164    27.9199 </r>
       <r>    21.1549     0.8225    28.0584 </r>
       <r>    21.3233     0.9986    28.2266 </r>
       <r>    21.4916     0.1392    28.2500 </r>
       <r>    21.6600     0.0001    28.2500 </r>
       <r>    21.8284     0.6289    28.3559 </r>
       <r>    21.9967     0.5597    28.4501 </r>
       <r>    22.1651     1.0926    28.6341 </r>
       <r>    22.3335     0.3898    28.6997 </r>
       <r>    22.5018     0.2847    28.7477 </r>
       <r>    22.6702     0.0139    28.7500 </r>
       <r>    22.8386     0.4753    28.8300 </r>
       <r>    23.0070     1.0095    29.0000 </r>
       <r>    23.1753     0.0008    29.0001 </r>
       <r>    23.3437     0.3659    29.0617 </r>
       <r>    23.5121     0.5242    29.1500 </r>
       <r>    23.6804     0.0002    29.1500 </r>
       <r>    23.8488     0.5371    29.2405 </r>
       <r>    24.0172     0.4334    29.3134 </r>
       <r>    24.1855     0.5141    29.4000 </r>
       <r>    24.3539     0.3043    29.4512 </r>
       <r>    24.5223     0.2915    29.5003 </r>
       <r>    24.6906     1.5706    29.7648 </r>
       <r>    24.8590     1.7300    30.0560 </r>
       <r>    25.0274     0.8511    30.1993 </r>
       <r>    25.1958     1.9376    30.5256 </r>
       <r>    25.3641     0.8752    30.6729 </r>
       <r>    25.5325     2.1072    31.0277 </r>
       <r>    25.7009     1.9411    31.3545 </r>
       <r>    25.8692     0.5490    31.4470 </r>
       <r>    26.0376     2.0160    31.7864 </r>
       <r>    26.2060     0.2418    31.8271 </r>
       <r>    26.3743     1.7079    32.1147 </r>
       <r>    26.5427     1.4733    32.3627 </r>
       <r>    26.7111     2.0036    32.7001 </r>
       <r>    26.8795     0.2948    32.7497 </r>
       <r>    27.0478     0.2945    32.7993 </r>
       <r>    27.2162     0.0205    32.8028 </r>
       <r>    27.3846     1.1740    33.0004 </r>
       <r>    27.5529     1.6805    33.2834 </r>
       <r>    27.7213     0.6641    33.3952 </r>
       <r>    27.8897     0.0364    33.4013 </r>
       <r>    28.0580     0.5804    33.4991 </r>
       <r>    28.2264     2.1772    33.8656 </r>
       <r>    28.3948     1.3512    34.0931 </r>
       <r>    28.5632     0.9868    34.2593 </r>
       <r>    28.7315     0.2419    34.3000 </r>
       <r>    28.8999     0.3233    34.3544 </r>
       <r>    29.0683     0.5664    34.4498 </r>
       <r>    29.2366     2.1722    34.8155 </r>
       <r>    29.4050     1.1223    35.0045 </r>
       <r>    29.5734     0.6231    35.1094 </r>
       <r>    29.7417     1.0658    35.2889 </r>
       <r>    29.9101     0.5656    35.3841 </r>
       <r>    30.0785     1.1337    35.5750 </r>
       <r>    30.2468     0.1698    35.6036 </r>
       <r>    30.4152     1.5818    35.8699 </r>
       <r>    30.5836     1.0761    36.0511 </r>
       <r>    30.7520     1.4985    36.3034 </r>
       <r>    30.9203     2.8355    36.7808 </r>
       <r>    31.0887     1.0291    36.9541 </r>
       <r>    31.2571     1.1897    37.1544 </r>
       <r>    31.4254     1.0309    37.3279 </r>
       <r>    31.5938     1.8838    37.6451 </r>
       <r>    31.7622     0.9642    37.8074 </r>
       <r>    31.9305     0.4107    37.8766 </r>
       <r>    32.0989     0.1496    37.9018 </r>
       <r>    32.2673     0.7231    38.0235 </r>
       <r>    32.4357     0.9417    38.1821 </r>
       <r>    32.6040     0.3219    38.2363 </r>
       <r>    32.7724     1.1057    38.4225 </r>
       <r>    32.9408     1.1013    38.6079 </r>
       <r>    33.1091     0.5586    38.7019 </r>
       <r>    33.2775     0.2896    38.7507 </r>
       <r>    33.4459     0.2919    38.7998 </r>
       <r>    33.6142     0.8978    38.9510 </r>
       <r>    33.7826     0.2915    39.0001 </r>
       <r>    33.9510     0.4144    39.0698 </r>
       <r>    34.1194     0.1791    39.1000 </r>
       <r>    34.2877     0.0371    39.1062 </r>
       <r>    34.4561     0.7981    39.2406 </r>
       <r>    34.6245     0.9166    39.3950 </r>
       <r>    34.7928     0.5519    39.4879 </r>
       <r>    34.9612     0.3561    39.5478 </r>
       <r>    35.1296     0.0915    39.5632 </r>
       <r>    35.2979     0.8141    39.7003 </r>
       <r>    35.4663     0.3213    39.7544 </r>
       <r>    35.6347     0.5678    39.8500 </r>
       <r>    35.8030     0.5679    39.9456 </r>
       <r>    35.9714     0.3568    40.0057 </r>
       <r>    36.1398     0.6146    40.1092 </r>
       <r>    36.3082     0.5392    40.2000 </r>
       <r>    36.4765     0.0279    40.2047 </r>
       <r>    36.6449     0.5656    40.2999 </r>
       <r>    36.8133     0.0006    40.3000 </r>
       <r>    36.9816     0.2233    40.3376 </r>
       <r>    37.1500     1.8341    40.6464 </r>
       <r>    37.3184     0.3183    40.7000 </r>
       <r>    37.4867     0.0731    40.7123 </r>
       <r>    37.6551     2.4974    41.1328 </r>
       <r>    37.8235     0.6408    41.2407 </r>
       <r>    37.9919     0.6491    41.3500 </r>
       <r>    38.1602     0.5047    41.4350 </r>
       <r>    38.3286     1.4860    41.6852 </r>
       <r>    38.4970     0.1012    41.7022 </r>
       <r>    38.6653     1.0116    41.8725 </r>
       <r>    38.8337     0.3841    41.9372 </r>
       <r>    39.0021     0.3730    42.0000 </r>
       <r>    39.1704     0.0003    42.0000 </r>
       <r>    39.3388     0.6412    42.1080 </r>
       <r>    39.5072     2.3623    42.5057 </r>
       <r>    39.6756     0.5598    42.6000 </r>
       <r>    39.8439     0.2033    42.6342 </r>
       <r>    40.0123     0.8408    42.7758 </r>
       <r>    40.1807     0.4637    42.8539 </r>
       <r>    40.3490     1.4730    43.1019 </r>
       <r>    40.5174     1.6900    43.3864 </r>
       <r>    40.6858     0.5817    43.4843 </r>
       <r>    40.8541     2.1344    43.8437 </r>
       <r>    41.0225     1.2295    44.0507 </r>
       <r>    41.1909     2.6680    44.4999 </r>
       <r>    41.3592     0.9771    44.6645 </r>
       <r>    41.5276     1.0699    44.8446 </r>
       <r>    41.6960     1.9092    45.1660 </r>
       <r>    41.8644     3.5785    45.7686 </r>
       <r>    42.0327     1.0778    45.9500 </r>
       <r>    42.2011     0.7140    46.0702 </r>
       <r>    42.3695     0.3575    46.1304 </r>
       <r>    42.5378     0.7084    46.2497 </r>
       <r>    42.7062     0.0017    46.2500 </r>
       <r>    42.8746     0.5571    46.3438 </r>
       <r>    43.0429     0.6088    46.4463 </r>
       <r>    43.2113     0.6139    46.5497 </r>
       <r>    43.3797     0.0350    46.5556 </r>
       <r>    43.5481     0.5605    46.6499 </r>
       <r>    43.7164     0.0005    46.6500 </r>
       <r>    43.8848     0.0098    46.6516 </r>
       <r>    44.0532     0.7237    46.7735 </r>
       <r>    44.2215     0.4543    46.8500 </r>
       <r>    44.3899     0.0000    46.8500 </r>
       <r>    44.5583     0.0000    46.8500 </r>
       <r>    44.7266     0.2479    46.8917 </r>
       <r>    44.8950     3.8949    47.5475 </r>
       <r>    45.0634     0.0147    47.5500 </r>
       <r>    45.2317     0.0408    47.5569 </r>
       <r>    45.4001     0.8301    47.6966 </r>
       <r>    45.5685     1.1808    47.8954 </r>
       <r>    45.7369     0.3364    47.9521 </r>
       <r>    45.9052     0.2842    47.9999 </r>
       <r>    46.0736     0.0004    48.0000 </r>
       <r>    46.2420     0.0000    48.0000 </r>
       <r>    46.4103     0.0000    48.0000 </r>
       <r>    46.5787     0.0000    48.0000 </r>
       <r>    46.7471     0.0000    48.0000 </r>
       <r>    46.9154     0.0000    48.0000 </r>
       <r>    47.0838     0.0000    48.0000 </r>
       <r>    47.2522     0.0000    48.0000 </r>
       <r>    47.4206     0.0000    48.0000 </r>
       <r>    47.5889     0.0000    48.0000 </r>
       <r>    47.7573     0.0000    48.0000 </r>
       <r>    47.9257     0.0000    48.0000 </r>
       <r>    48.0940     0.0000    48.0000 </r>
      </set>
     </set>
    </array>
   </total>
   <partial>
    <array>
     <dimension dim="1">gridpoints</dimension>
     <dimension dim="2">spin</dimension>
     <dimension dim="3">ion</dimension>
     <field>energy</field>
     <field>    s</field>
     <field>   py</field>
     <field>   pz</field>
     <field>   px</field>
     <field>  dxy</field>
     <field>  dyz</field>
     <field>  dz2</field>
     <field>  dxz</field>
     <field>x2-y2</field>
     <set>
      <set comment="ion 1">
       <set comment="spin 1">
        <r>    -2.4169     0.0000     0.0000     0.0000     0.0000     0.0000     0.0000     0.0000     0.0000     0.0000 </r>
        <r>    -2.2485     0.0000     0.0000     0.0000     0.0000     0.0000     0.0000     0.0000     0.0000     0.0000 </r>
        <r>    -2.0801     0.0000     0.0000     0.0000     0.0000     0.0000     0.0000     0.0000     0.0000     0.0000 </r>
        <r>    -1.9118     0.0000     0.0000     0.0000     0.0000     0.0000     0.0000     0.0000     0.0000     0.0000 </r>
        <r>    -1.7434     0.0000     0.0000     0.0000     0.0000     0.0000     0.0000     0.0000     0.0000     0.0000 </r>
        <r>    -1.5750     0.0000     0.0000     0.0000     0.0000     0.0000     0.0000     0.0000     0.0000     0.0000 </r>
        <r>    -1.4067     0.0000     0.0000     0.0000     0.0000     0.0000     0.0000     0.0000     0.0000     0.0000 </r>
        <r>    -1.2383     0.0000     0.0000     0.0000     0.0000     0.0000     0.0000     0.0000     0.0000     0.0000 </r>
        <r>    -1.0699     0.0000     0.0000     0.0000     0.0000     0.0000     0.0000     0.0000     0.0000     0.0000 </r>
        <r>    -0.9015     0.0000     0.0000     0.0000     0.0000     0.0000     0.0000     0.0000     0.0000     0.0000 </r>
        <r>    -0.7332     0.0000     0.0000     0.0000     0.0000     0.0000     0.0000     0.0000     0.0000     0.0000 </r>
        <r>    -0.5648     0.0000     0.0000     0.0000     0.0000     0.0000     0.0000     0.0000     0.0000     0.0000 </r>
        <r>    -0.3964     0.0000     0.0000     0.0000     0.0000     0.0000     0.0000     0.0000     0.0000     0.0000 </r>
        <r>    -0.2281     0.0003     0.0000     0.0000     0.0000     0.0000     0.0000     0.0000     0.0000     0.0000 </r>
        <r>    -0.0597     0.3431     0.0002     0.0002     0.0002     0.0000     0.0000     0.0000     0.0000     0.0000 </r>
        <r>     0.1087     0.2670     0.0016     0.0016     0.0016     0.0000     0.0000     0.0000     0.0000     0.0000 </r>
        <r>     0.2770     0.0712     0.0006     0.0006     0.0006     0.0000     0.0000     0.0000     0.0000     0.0000 </r>
        <r>     0.4454     0.1226     0.0020     0.0020     0.0020     0.0001     0.0001     0.0000     0.0001     0.0000 </r>
        <r>     0.6138     0.0121     0.0004     0.0004     0.0004     0.0000     0.0000     0.0000     0.0000     0.0000 </r>
        <r>     0.7822     0.2373     0.0070     0.0070     0.0070     0.0006     0.0006     0.0000     0.0006     0.0000 </r>
        <r>     0.9505     0.0002     0.0000     0.0000     0.0000     0.0000     0.0000     0.0000     0.0000     0.0000 </r>
        <r>     1.1189     0.0938     0.0043     0.0043     0.0043     0.0006     0.0006     0.0000     0.0006     0.0000 </r>
        <r>     1.2873     0.0246     0.0011     0.0011     0.0011     0.0001     0.0001     0.0000     0.0001     0.0000 </r>
        <r>     1.4556     0.0001     0.0000     0.0000     0.0000     0.0000     0.0000     0.0000     0.0000     0.0000 </r>
        <r>     1.6240     0.2047     0.0137     0.0137     0.0137     0.0026     0.0026     0.0000     0.0026     0.0000 </r>
        <r>     1.7924     0.0167     0.0011     0.0011     0.0011     0.0002     0.0002     0.0000     0.0002     0.0000 </r>
        <r>     1.9607     0.0000     0.0000     0.0000     0.0000     0.0000     0.0000     0.0000     0.0000     0.0000 </r>
[...]
       </set>
       <set comment="band 12">
        <r>  0.0000  0.1256  0.0579  0.2326  0.0025  0.0102  0.0120  0.0055  0.0454 </r>
        <r>  0.0000  0.1256  0.0579  0.2326  0.0025  0.0102  0.0120  0.0055  0.0454 </r>
       </set>
       <set comment="band 13">
        <r>  0.0000  0.1518  0.2195  0.0448  0.0096  0.0020  0.0454  0.0066  0.0120 </r>
        <r>  0.0000  0.1518  0.2195  0.0448  0.0096  0.0020  0.0454  0.0066  0.0120 </r>
       </set>
       <set comment="band 14">
        <r>  0.0655  0.1142  0.1142  0.1142  0.0202  0.0202  0.0000  0.0202  0.0000 </r>
        <r>  0.0655  0.1142  0.1142  0.1142  0.0202  0.0202  0.0000  0.0202  0.0000 </r>
       </set>
       <set comment="band 15">
        <r>  0.0000  0.0138  0.0000  0.0126  0.0000  0.0007  0.0012  0.0008  0.5601 </r>
        <r>  0.0000  0.0138  0.0000  0.0126  0.0000  0.0007  0.0012  0.0008  0.5601 </r>
       </set>
       <set comment="band 16">
        <r>  0.0000  0.0038  0.0176  0.0050  0.0010  0.0003  0.5601  0.0002  0.0012 </r>
        <r>  0.0000  0.0038  0.0176  0.0050  0.0010  0.0003  0.5601  0.0002  0.0012 </r>
       </set>
       <set comment="band 17">
        <r>  0.0000  0.0008  0.0038  0.0075  0.0245  0.0483  0.0439  0.0053  0.0493 </r>
        <r>  0.0000  0.0008  0.0038  0.0075  0.0245  0.0483  0.0439  0.0053  0.0493 </r>
       </set>
       <set comment="band 18">
        <r>  0.0000  0.0073  0.0043  0.0006  0.0276  0.0038  0.0493  0.0468  0.0439 </r>
        <r>  0.0000  0.0073  0.0043  0.0006  0.0276  0.0038  0.0493  0.0468  0.0439 </r>
       </set>
       <set comment="band 19">
        <r>  0.0000  0.0000  0.0000  0.0000  0.0000  0.0000  0.0000  0.0000  0.0000 </r>
        <r>  0.0000  0.0000  0.0000  0.0000  0.0000  0.0000  0.0000  0.0000  0.0000 </r>
       </set>
       <set comment="band 20">
        <r>  0.2995  0.0275  0.0275  0.0275  0.0007  0.0007  0.0000  0.0007  0.0000 </r>
        <r>  0.2995  0.0275  0.0275  0.0275  0.0007  0.0007  0.0000  0.0007  0.0000 </r>
       </set>
       <set comment="band 21">
        <r>  0.0173  0.0727  0.0727  0.0727  0.1763  0.1763  0.0000  0.1763  0.0000 </r>
        <r>  0.0173  0.0727  0.0727  0.0727  0.1763  0.1763  0.0000  0.1763  0.0000 </r>
       </set>
       <set comment="band 22">
        <r>  0.0000  0.0027  0.0312  0.0361  0.0054  0.0062  0.1513  0.0005  0.0749 </r>
        <r>  0.0000  0.0027  0.0312  0.0361  0.0054  0.0062  0.1513  0.0005  0.0749 </r>
       </set>
       <set comment="band 23">
        <r>  0.0000  0.0440  0.0155  0.0106  0.0027  0.0018  0.0749  0.0076  0.1513 </r>
        <r>  0.0000  0.0440  0.0155  0.0106  0.0027  0.0018  0.0749  0.0076  0.1513 </r>
       </set>
       <set comment="band 24">
        <r>  0.0000  0.0358  0.0025  0.0468  0.0240  0.4540  0.0023  0.3466  0.0494 </r>
        <r>  0.0000  0.0357  0.0025  0.0468  0.0240  0.4537  0.0023  0.3469  0.0494 </r>
       </set>
      </set>
      <set comment="kpoint 38">
       <set comment="band 1">
        <r>  0.4490  0.0033  0.0033  0.0033  0.0001  0.0001  0.0000  0.0001  0.0000 </r>
        <r>  0.4490  0.0033  0.0033  0.0033  0.0001  0.0001  0.0000  0.0001  0.0000 </r>
       </set>
       <set comment="band 2">
        <r>  0.0000  0.0016  0.0019  0.0011  0.0000  0.0000  0.2786  0.0000  0.1750 </r>
        <r>  0.0000  0.0016  0.0019  0.0011  0.0000  0.0000  0.2786  0.0000  0.1750 </r>
       </set>
       <set comment="band 3">
        <r>  0.0000  0.0015  0.0012  0.0019  0.0000  0.0000  0.1750  0.0000  0.2786 </r>
        <r>  0.0000  0.0015  0.0012  0.0019  0.0000  0.0000  0.1750  0.0000  0.2786 </r>
       </set>
       <set comment="band 4">
        <r>  0.0000  0.0001  0.0001  0.0003  0.1076  0.3308  0.0002  0.0635  0.0004 </r>
        <r>  0.0000  0.0001  0.0001  0.0003  0.1076  0.3308  0.0002  0.0635  0.0004 </r>
       </set>
       <set comment="band 5">
        <r>  0.0000  0.0002  0.0002  0.0000  0.2270  0.0038  0.0004  0.2711  0.0002 </r>
        <r>  0.0000  0.0002  0.0002  0.0000  0.2270  0.0038  0.0004  0.2711  0.0002 </r>
       </set>
       <set comment="band 6">
        <r>  0.0000  0.0006  0.0006  0.0006  0.1668  0.1668  0.0000  0.1668  0.0000 </r>
        <r>  0.0000  0.0006  0.0006  0.0006  0.1668  0.1668  0.0000  0.1668  0.0000 </r>
       </set>
       <set comment="band 7">
        <r>  0.0000  0.0000  0.0000  0.0000  0.0000  0.0004  0.0042  0.0003  0.4766 </r>
        <r>  0.0000  0.0000  0.0000  0.0000  0.0000  0.0004  0.0042  0.0003  0.4766 </r>
       </set>
       <set comment="band 8">
        <r>  0.0000  0.0000  0.0000  0.0000  0.0005  0.0001  0.4766  0.0002  0.0042 </r>
        <r>  0.0000  0.0000  0.0000  0.0000  0.0005  0.0001  0.4766  0.0002  0.0042 </r>
       </set>
       <set comment="band 9">
        <r>  0.0007  0.0044  0.0044  0.0044  0.1587  0.1587  0.0000  0.1587  0.0000 </r>
        <r>  0.0007  0.0044  0.0044  0.0044  0.1587  0.1587  0.0000  0.1587  0.0000 </r>
       </set>
       <set comment="band 10">
        <r>  0.0000  0.0014  0.0003  0.0023  0.0337  0.2796  0.0000  0.1753  0.0003 </r>
        <r>  0.0000  0.0014  0.0003  0.0023  0.0337  0.2796  0.0000  0.1753  0.0003 </r>
       </set>
       <set comment="band 11">
        <r>  0.0000  0.0012  0.0024  0.0004  0.2920  0.0461  0.0003  0.1504  0.0000 </r>
        <r>  0.0000  0.0012  0.0024  0.0004  0.2920  0.0461  0.0003  0.1504  0.0000 </r>
       </set>
       <set comment="band 12">
        <r>  0.0000  0.2543  0.1427  0.0428  0.0028  0.0008  0.0143  0.0049  0.0151 </r>
        <r>  0.0000  0.2543  0.1427  0.0428  0.0028  0.0008  0.0143  0.0049  0.0151 </r>
       </set>
       <set comment="band 13">
        <r>  0.0000  0.0390  0.1505  0.2504  0.0029  0.0049  0.0151  0.0008  0.0143 </r>
        <r>  0.0000  0.0390  0.1505  0.2504  0.0029  0.0049  0.0151  0.0008  0.0143 </r>
       </set>
       <set comment="band 14">
        <r>  0.0320  0.1344  0.1344  0.1344  0.0104  0.0104  0.0000  0.0104  0.0000 </r>
        <r>  0.0320  0.1344  0.1344  0.1344  0.0104  0.0104  0.0000  0.0104  0.0000 </r>
       </set>
       <set comment="band 15">
        <r>  0.0000  0.0015  0.0037  0.0086  0.0001  0.0002  0.2384  0.0000  0.3616 </r>
        <r>  0.0000  0.0015  0.0037  0.0086  0.0001  0.0002  0.2384  0.0000  0.3616 </r>
       </set>
       <set comment="band 16">
        <r>  0.0000  0.0077  0.0056  0.0006  0.0001  0.0000  0.3616  0.0002  0.2384 </r>
        <r>  0.0000  0.0077  0.0056  0.0006  0.0001  0.0000  0.3616  0.0002  0.2384 </r>
       </set>
       <set comment="band 17">
        <r>  0.0000  0.0012  0.0014  0.0004  0.0181  0.0057  0.0359  0.0164  0.0171 </r>
        <r>  0.0000  0.0012  0.0014  0.0004  0.0181  0.0057  0.0359  0.0164  0.0171 </r>
       </set>
       <set comment="band 18">
        <r>  0.0000  0.0008  0.0007  0.0016  0.0086  0.0211  0.0171  0.0104  0.0359 </r>
        <r>  0.0000  0.0008  0.0007  0.0016  0.0086  0.0211  0.0171  0.0104  0.0359 </r>
       </set>
       <set comment="band 19">
        <r>  0.0000  0.0000  0.0000  0.0000  0.0000  0.0000  0.0000  0.0000  0.0000 </r>
        <r>  0.0000  0.0000  0.0000  0.0000  0.0000  0.0000  0.0000  0.0000  0.0000 </r>
       </set>
       <set comment="band 20">
        <r>  0.3370  0.0131  0.0131  0.0131  0.0002  0.0002  0.0000  0.0002  0.0000 </r>
        <r>  0.3370  0.0131  0.0131  0.0131  0.0002  0.0002  0.0000  0.0002  0.0000 </r>
       </set>
       <set comment="band 21">
        <r>  0.0000  0.0104  0.0054  0.0266  0.0002  0.0012  0.0655  0.0005  0.2762 </r>
        <r>  0.0000  0.0104  0.0054  0.0266  0.0002  0.0012  0.0655  0.0005  0.2762 </r>
       </set>
       <set comment="band 22">
        <r>  0.0000  0.0179  0.0228  0.0016  0.0010  0.0001  0.2762  0.0008  0.0655 </r>
        <r>  0.0000  0.0179  0.0228  0.0016  0.0010  0.0001  0.2762  0.0008  0.0655 </r>
       </set>
       <set comment="band 23">
        <r>  0.0074  0.0585  0.0585  0.0585  0.2230  0.2229  0.0000  0.2229  0.0000 </r>
        <r>  0.0074  0.0585  0.0585  0.0585  0.2230  0.2229  0.0000  0.2229  0.0000 </r>
       </set>
       <set comment="band 24">
        <r>  0.0000  0.0472  0.0092  0.0148  0.1203  0.1939  0.0044  0.6190  0.0185 </r>
        <r>  0.0000  0.0472  0.0092  0.0148  0.1203  0.1939  0.0044  0.6190  0.0185 </r>
       </set>
      </set>
      <set comment="kpoint 39">
       <set comment="band 1">
        <r>  0.4562  0.0008  0.0008  0.0008  0.0000  0.0000  0.0000  0.0000  0.0000 </r>
        <r>  0.4562  0.0008  0.0008  0.0008  0.0000  0.0000  0.0000  0.0000  0.0000 </r>
       </set>
       <set comment="band 2">
        <r>  0.0000  0.0004  0.0007  0.0001  0.0000  0.0000  0.3984  0.0000  0.0588 </r>
        <r>  0.0000  0.0004  0.0007  0.0001  0.0000  0.0000  0.3984  0.0000  0.0588 </r>
       </set>
       <set comment="band 3">
        <r>  0.0000  0.0004  0.0001  0.0007  0.0000  0.0000  0.0588  0.0000  0.3984 </r>
        <r>  0.0000  0.0004  0.0001  0.0007  0.0000  0.0000  0.0588  0.0000  0.3984 </r>
       </set>
       <set comment="band 4">
        <r>  0.0000  0.0000  0.0001  0.0000  0.3270  0.0746  0.0000  0.1018  0.0000 </r>
        <r>  0.0000  0.0000  0.0001  0.0000  0.3270  0.0746  0.0000  0.1018  0.0000 </r>
       </set>
       <set comment="band 5">
        <r>  0.0000  0.0001  0.0000  0.0001  0.0086  0.2610  0.0000  0.2338  0.0000 </r>
        <r>  0.0000  0.0001  0.0000  0.0001  0.0086  0.2610  0.0000  0.2338  0.0000 </r>
       </set>
       <set comment="band 6">
        <r>  0.0000  0.0001  0.0001  0.0001  0.1676  0.1676  0.0000  0.1676  0.0000 </r>
        <r>  0.0000  0.0001  0.0001  0.0001  0.1676  0.1676  0.0000  0.1676  0.0000 </r>
       </set>
       <set comment="band 7">
        <r>  0.0000  0.0000  0.0000  0.0000  0.0000  0.0000  0.4352  0.0000  0.0468 </r>
        <r>  0.0000  0.0000  0.0000  0.0000  0.0000  0.0000  0.4352  0.0000  0.0468 </r>
       </set>
       <set comment="band 8">
        <r>  0.0000  0.0000  0.0000  0.0000  0.0000  0.0000  0.0468  0.0000  0.4352 </r>
        <r>  0.0000  0.0000  0.0000  0.0000  0.0000  0.0000  0.0468  0.0000  0.4352 </r>
       </set>
       <set comment="band 9">
        <r>  0.0001  0.0013  0.0013  0.0013  0.1628  0.1628  0.0000  0.1628  0.0000 </r>
        <r>  0.0001  0.0013  0.0013  0.0013  0.1628  0.1628  0.0000  0.1628  0.0000 </r>
       </set>
       <set comment="band 10">
        <r>  0.0000  0.0001  0.0006  0.0004  0.2860  0.1814  0.0000  0.0248  0.0000 </r>
        <r>  0.0000  0.0001  0.0006  0.0004  0.2860  0.1814  0.0000  0.0248  0.0000 </r>
       </set>
       <set comment="band 11">
        <r>  0.0000  0.0006  0.0001  0.0003  0.0421  0.1468  0.0000  0.3033  0.0000 </r>
        <r>  0.0000  0.0006  0.0001  0.0003  0.0421  0.1468  0.0000  0.3033  0.0000 </r>
       </set>
       <set comment="band 12">
        <r>  0.0000  0.0043  0.1971  0.2554  0.0010  0.0012  0.0052  0.0000  0.0028 </r>
        <r>  0.0000  0.0043  0.1971  0.2554  0.0010  0.0012  0.0052  0.0000  0.0028 </r>
       </set>
       <set comment="band 13">
        <r>  0.0000  0.3002  0.1075  0.0491  0.0005  0.0002  0.0028  0.0015  0.0052 </r>
        <r>  0.0000  0.3002  0.1075  0.0491  0.0005  0.0002  0.0028  0.0015  0.0052 </r>
       </set>
       <set comment="band 14">
        <r>  0.0085  0.1490  0.1490  0.1490  0.0029  0.0029  0.0000  0.0029  0.0000 </r>
        <r>  0.0085  0.1490  0.1490  0.1490  0.0029  0.0029  0.0000  0.0029  0.0000 </r>
       </set>
       <set comment="band 15">
        <r>  0.0000  0.0002  0.0023  0.0013  0.0000  0.0000  0.5715  0.0000  0.0561 </r>
        <r>  0.0000  0.0002  0.0023  0.0013  0.0000  0.0000  0.5715  0.0000  0.0561 </r>
       </set>
       <set comment="band 16">
        <r>  0.0000  0.0024  0.0002  0.0013  0.0000  0.0000  0.0561  0.0000  0.5715 </r>
        <r>  0.0000  0.0024  0.0002  0.0013  0.0000  0.0000  0.0561  0.0000  0.5715 </r>
       </set>
       <set comment="band 17">
        <r>  0.0000  0.0001  0.0001  0.0000  0.0035  0.0015  0.0075  0.0059  0.0080 </r>
        <r>  0.0000  0.0001  0.0001  0.0000  0.0035  0.0015  0.0075  0.0059  0.0080 </r>
       </set>
       <set comment="band 18">
        <r>  0.0000  0.0000  0.0001  0.0001  0.0038  0.0058  0.0080  0.0014  0.0075 </r>
        <r>  0.0000  0.0000  0.0001  0.0001  0.0038  0.0058  0.0080  0.0014  0.0075 </r>
       </set>
       <set comment="band 19">
        <r>  0.0000  0.0000  0.0000  0.0000  0.0000  0.0000  0.0000  0.0000  0.0000 </r>
        <r>  0.0000  0.0000  0.0000  0.0000  0.0000  0.0000  0.0000  0.0000  0.0000 </r>
       </set>
       <set comment="band 20">
        <r>  0.3616  0.0034  0.0034  0.0034  0.0000  0.0000  0.0000  0.0000  0.0000 </r>
        <r>  0.3616  0.0034  0.0034  0.0034  0.0000  0.0000  0.0000  0.0000  0.0000 </r>
       </set>
       <set comment="band 21">
        <r>  0.0000  0.0008  0.0062  0.0060  0.0000  0.0000  0.3175  0.0000  0.1281 </r>
        <r>  0.0000  0.0008  0.0062  0.0060  0.0000  0.0000  0.3175  0.0000  0.1281 </r>
       </set>
       <set comment="band 22">
        <r>  0.0000  0.0078  0.0025  0.0027  0.0000  0.0000  0.1281  0.0001  0.3175 </r>
        <r>  0.0000  0.0078  0.0025  0.0027  0.0000  0.0000  0.1281  0.0001  0.3175 </r>
       </set>
       <set comment="band 23">
        <r>  0.0013  0.0341  0.0341  0.0341  0.2990  0.2990  0.0000  0.2990  0.0000 </r>
        <r>  0.0013  0.0341  0.0341  0.0341  0.2990  0.2990  0.0000  0.2990  0.0000 </r>
       </set>
       <set comment="band 24">
        <r>  0.0000  0.0227  0.0021  0.0123  0.0611  0.3592  0.0003  0.6649  0.0030 </r>
        <r>  0.0000  0.0227  0.0021  0.0123  0.0611  0.3592  0.0003  0.6649  0.0030 </r>
       </set>
      </set>
      <set comment="kpoint 40">
       <set comment="band 1">
        <r>  0.4587  0.0000  0.0000  0.0000  0.0000  0.0000  0.0000  0.0000  0.0000 </r>
        <r>  0.4587  0.0000  0.0000  0.0000  0.0000  0.0000  0.0000  0.0000  0.0000 </r>
       </set>
       <set comment="band 2">
        <r>  0.0000  0.0000  0.0000  0.0000  0.0000  0.0000  0.1990  0.0000  0.2594 </r>
        <r>  0.0000  0.0000  0.0000  0.0000  0.0000  0.0000  0.1990  0.0000  0.2594 </r>
       </set>
       <set comment="band 3">
        <r>  0.0000  0.0000  0.0000  0.0000  0.0000  0.0000  0.2594  0.0000  0.1990 </r>
        <r>  0.0000  0.0000  0.0000  0.0000  0.0000  0.0000  0.2594  0.0000  0.1990 </r>
       </set>
       <set comment="band 4">
        <r>  0.0000  0.0000  0.0000  0.0000  0.0340  0.1221  0.0000  0.3476  0.0000 </r>
        <r>  0.0000  0.0000  0.0000  0.0000  0.0340  0.1221  0.0000  0.3476  0.0000 </r>
       </set>
       <set comment="band 5">
        <r>  0.0000  0.0000  0.0000  0.0000  0.2937  0.1875  0.0000  0.0225  0.0000 </r>
        <r>  0.0000  0.0000  0.0000  0.0000  0.2937  0.1875  0.0000  0.0225  0.0000 </r>
       </set>
       <set comment="band 6">
        <r>  0.0000  0.0000  0.0000  0.0000  0.1760  0.1942  0.0000  0.1336  0.0000 </r>
        <r>  0.0000  0.0000  0.0000  0.0000  0.1760  0.1942  0.0000  0.1336  0.0000 </r>
       </set>
       <set comment="band 7">
        <r>  0.0000  0.0000  0.0000  0.0000  0.0000  0.0000  0.1272  0.0000  0.3551 </r>
        <r>  0.0000  0.0000  0.0000  0.0000  0.0000  0.0000  0.1272  0.0000  0.3551 </r>
       </set>
       <set comment="band 8">
        <r>  0.0000  0.0000  0.0000  0.0000  0.0000  0.0000  0.3551  0.0000  0.1272 </r>
        <r>  0.0000  0.0000  0.0000  0.0000  0.0000  0.0000  0.3551  0.0000  0.1272 </r>
       </set>
       <set comment="band 9">
        <r>  0.0000  0.0000  0.0000  0.0000  0.2482  0.1493  0.0000  0.0960  0.0000 </r>
        <r>  0.0000  0.0000  0.0000  0.0000  0.2482  0.1493  0.0000  0.0960  0.0000 </r>
       </set>
       <set comment="band 10">
        <r>  0.0000  0.0000  0.0000  0.0000  0.2178  0.2570  0.0000  0.0186  0.0000 </r>
        <r>  0.0000  0.0000  0.0000  0.0000  0.2178  0.2570  0.0000  0.0186  0.0000 </r>
       </set>
       <set comment="band 11">
        <r>  0.0000  0.0000  0.0000  0.0000  0.0274  0.0871  0.0000  0.3789  0.0000 </r>
        <r>  0.0000  0.0000  0.0000  0.0000  0.0274  0.0871  0.0000  0.3789  0.0000 </r>
       </set>
       <set comment="band 12">
        <r>  0.0000  0.3468  0.0792  0.0371  0.0000  0.0000  0.0000  0.0000  0.0000 </r>
        <r>  0.0000  0.3468  0.0792  0.0371  0.0000  0.0000  0.0000  0.0000  0.0000 </r>
       </set>
       <set comment="band 13">
        <r>  0.0000  0.0957  0.3346  0.0328  0.0000  0.0000  0.0000  0.0000  0.0000 </r>
        <r>  0.0000  0.0957  0.3346  0.0328  0.0000  0.0000  0.0000  0.0000  0.0000 </r>
       </set>
       <set comment="band 14">
        <r>  0.0000  0.0206  0.0493  0.3931  0.0000  0.0000  0.0000  0.0000  0.0000 </r>
        <r>  0.0000  0.0206  0.0493  0.3931  0.0000  0.0000  0.0000  0.0000  0.0000 </r>
       </set>
       <set comment="band 15">
        <r>  0.0000  0.0000  0.0000  0.0000  0.0000  0.0000  0.4556  0.0000  0.1821 </r>
        <r>  0.0000  0.0000  0.0000  0.0000  0.0000  0.0000  0.4556  0.0000  0.1821 </r>
       </set>
       <set comment="band 16">
        <r>  0.0000  0.0000  0.0000  0.0000  0.0000  0.0000  0.1821  0.0000  0.4556 </r>
        <r>  0.0000  0.0000  0.0000  0.0000  0.0000  0.0000  0.1821  0.0000  0.4556 </r>
       </set>
       <set comment="band 17">
        <r>  0.0000  0.0000  0.0000  0.0000  0.0000  0.0000  0.0000  0.0000  0.0000 </r>
        <r>  0.0000  0.0000  0.0000  0.0000  0.0000  0.0000  0.0000  0.0000  0.0000 </r>
       </set>
       <set comment="band 18">
        <r>  0.0000  0.0000  0.0000  0.0000  0.0000  0.0000  0.0000  0.0000  0.0000 </r>
        <r>  0.0000  0.0000  0.0000  0.0000  0.0000  0.0000  0.0000  0.0000  0.0000 </r>
       </set>
       <set comment="band 19">
        <r>  0.0000  0.0000  0.0000  0.0000  0.0000  0.0000  0.0000  0.0000  0.0000 </r>
        <r>  0.0000  0.0000  0.0000  0.0000  0.0000  0.0000  0.0000  0.0000  0.0000 </r>
       </set>
       <set comment="band 20">
        <r>  0.3702  0.0000  0.0000  0.0000  0.0000  0.0000  0.0000  0.0000  0.0000 </r>
        <r>  0.3702  0.0000  0.0000  0.0000  0.0000  0.0000  0.0000  0.0000  0.0000 </r>
       </set>
       <set comment="band 21">
        <r>  0.0000  0.0000  0.0000  0.0000  0.0000  0.0000  0.1622  0.0000  0.3263 </r>
        <r>  0.0000  0.0000  0.0000  0.0000  0.0000  0.0000  0.1622  0.0000  0.3263 </r>
       </set>
       <set comment="band 22">
        <r>  0.0000  0.0000  0.0000  0.0000  0.0000  0.0000  0.3263  0.0000  0.1622 </r>
        <r>  0.0000  0.0000  0.0000  0.0000  0.0000  0.0000  0.3263  0.0000  0.1622 </r>
       </set>
       <set comment="band 23">
        <r>  0.0000  0.0000  0.0000  0.0000  0.8475  0.0604  0.0000  0.3061  0.0000 </r>
        <r>  0.0000  0.0000  0.0000  0.0000  0.8475  0.0604  0.0000  0.3061  0.0000 </r>
       </set>
       <set comment="band 24">
        <r>  0.0000  0.0000  0.0000  0.0000  0.1236  0.4390  0.0000  0.6514  0.0000 </r>
        <r>  0.0000  0.0000  0.0000  0.0000  0.1236  0.4390  0.0000  0.6514  0.0000 </r>
       </set>
      </set>
     </set>
    </set>
   </array>
  </projected>
 </calculation>
 <structure name="finalpos" >
  <crystal>
   <varray name="basis" >
    <v>       2.83552905       0.00000000       0.00000000 </v>
    <v>       0.00000000       2.83552905       0.00000000 </v>
    <v>       0.00000000       0.00000000       2.83552905 </v>
   </varray>
   <i name="volume">     22.79829149 </i>
   <varray name="rec_basis" >
    <v>       0.35266787       0.00000000       0.00000000 </v>
    <v>       0.00000000       0.35266787       0.00000000 </v>
    <v>       0.00000000       0.00000000       0.35266787 </v>
   </varray>
  </crystal>
  <varray name="positions" >
   <v>       0.00000000       0.00000000       0.00000000 </v>
   <v>       0.50000000       0.50000000       0.50000000 </v>
  </varray>
 </structure>
</modeling>
