       N       E                     dE             d eps       ncg     rms          rms(c)
DAV:   1    -0.775889211414E+01   -0.77589E+01   -0.39120E+03  7920   0.305E+02
DAV:   2    -0.150471674983E+02   -0.72883E+01   -0.71910E+01 11664   0.256E+01
DAV:   3    -0.150778603444E+02   -0.30693E-01   -0.30690E-01 10536   0.207E+00
DAV:   4    -0.150779047969E+02   -0.44452E-04   -0.44452E-04 13704   0.721E-02
DAV:   5    -0.150779048142E+02   -0.17305E-07   -0.17694E-07 10512   0.806E-04    0.262E+00
DAV:   6    -0.150257856115E+02    0.52119E-01   -0.65342E-03 11544   0.251E-01    0.152E+00
DAV:   7    -0.149876837663E+02    0.38102E-01   -0.18747E-02 10512   0.398E-01    0.268E-01
DAV:   8    -0.149875731105E+02    0.11066E-03   -0.75570E-05 14040   0.335E-02    0.356E-02
DAV:   9    -0.149875642885E+02    0.88221E-05   -0.39189E-06 10536   0.586E-03
   1 F= -.14987564E+02 E0= -.14986670E+02  d E =-.149876E+02
