       N       E                     dE             d eps       ncg     rms          rms(c)
DAV:   1     0.334387470177E+03    0.33439E+03   -0.27297E+04   960   0.972E+02
DAV:   2    -0.894402800238E+01   -0.34333E+03   -0.33985E+03  1200   0.261E+02
DAV:   3    -0.200259924955E+02   -0.11082E+02   -0.11075E+02  1152   0.525E+01
DAV:   4    -0.201428111034E+02   -0.11682E+00   -0.11682E+00  1560   0.395E+00
DAV:   5    -0.201431321202E+02   -0.32102E-03   -0.32102E-03  1176   0.180E-01    0.106E+01
DAV:   6    -0.192624761945E+02    0.88066E+00   -0.25652E+00  1152   0.924E+00    0.855E+00
DAV:   7    -0.192040634634E+02    0.58413E-01   -0.78488E-01  1032   0.295E+00    0.308E+00
DAV:   8    -0.192046880511E+02   -0.62459E-03   -0.60692E-02  1032   0.178E+00    0.954E-01
DAV:   9    -0.192057890084E+02   -0.11010E-02   -0.79294E-03  1224   0.595E-01    0.172E-01
DAV:  10    -0.192057645728E+02    0.24436E-04   -0.10998E-03  1128   0.221E-01    0.836E-02
DAV:  11    -0.192059010328E+02   -0.13646E-03   -0.36528E-04   984   0.104E-01    0.299E-02
DAV:  12    -0.192059077249E+02   -0.66921E-05   -0.46985E-05   720   0.498E-02
   1 F= -.19205908E+02 E0= -.19205908E+02  d E =-.756118E-16
