       N       E                     dE             d eps       ncg     rms          rms(c)
DAV:   1     0.350734892177E+03    0.35073E+03   -0.28548E+04   960   0.101E+03
DAV:   2    -0.716805325589E+01   -0.35790E+03   -0.35375E+03  1248   0.275E+02
DAV:   3    -0.172352196408E+02   -0.10067E+02   -0.10062E+02  1176   0.509E+01
DAV:   4    -0.173256964341E+02   -0.90477E-01   -0.90474E-01  1584   0.361E+00
DAV:   5    -0.173258902747E+02   -0.19384E-03   -0.19384E-03  1200   0.146E-01    0.176E+01
DAV:   6    -0.164367409771E+02    0.88915E+00   -0.22779E+00  1176   0.115E+01    0.131E+01
DAV:   7    -0.163711444856E+02    0.65596E-01   -0.10812E+00  1080   0.413E+00    0.284E+00
DAV:   8    -0.163595378666E+02    0.11607E-01   -0.13033E-01  1176   0.280E+00    0.159E+00
DAV:   9    -0.163593442261E+02    0.19364E-03   -0.18556E-02  1152   0.684E-01    0.378E-01
DAV:  10    -0.163593721949E+02   -0.27969E-04   -0.12167E-03  1248   0.270E-01    0.131E-01
DAV:  11    -0.163593612829E+02    0.10912E-04   -0.30207E-04  1200   0.926E-02    0.447E-02
DAV:  12    -0.163594069249E+02   -0.45642E-04   -0.77929E-05  1104   0.443E-02    0.273E-02
DAV:  13    -0.163594111209E+02   -0.41960E-05   -0.19096E-05  1032   0.281E-02
   1 F= -.16359411E+02 E0= -.16359411E+02  d E =-.163594E+02
       N       E                     dE             d eps       ncg     rms          rms(c)
DAV:   1    -0.103756783684E+03   -0.87397E+02   -0.22935E+03   960   0.355E+02    0.143E+02
DAV:   2    -0.365972218498E+02    0.67160E+02   -0.15883E+02   960   0.811E+01    0.438E+01
DAV:   3    -0.241643042868E+02    0.12433E+02   -0.12612E+01  1128   0.224E+01    0.435E+01
DAV:   4    -0.187233510285E+02    0.54410E+01   -0.13631E+01   984   0.212E+01    0.154E+01
DAV:   5    -0.186394862679E+02    0.83865E-01   -0.56353E-01   960   0.466E+00    0.365E+00
DAV:   6    -0.186239141348E+02    0.15572E-01   -0.23485E-01  1176   0.299E+00    0.146E+00
DAV:   7    -0.186191363740E+02    0.47778E-02   -0.35315E-02  1032   0.131E+00    0.301E-01
DAV:   8    -0.186202660706E+02   -0.11297E-02   -0.27223E-03  1080   0.280E-01    0.112E-01
DAV:   9    -0.186202967786E+02   -0.30708E-04   -0.37788E-04  1224   0.117E-01    0.259E-02
DAV:  10    -0.186204274128E+02   -0.13063E-03   -0.23967E-04  1032   0.531E-02    0.109E-02
DAV:  11    -0.186204255904E+02    0.18224E-05   -0.15030E-05  1032   0.268E-02
   2 F= -.18620426E+02 E0= -.18620414E+02  d E =-.226101E+01
       N       E                     dE             d eps       ncg     rms          rms(c)
DAV:   1    -0.336080388035E+02   -0.14988E+02   -0.28697E+02  1128   0.103E+02    0.251E+01
DAV:   2    -0.201067939274E+02    0.13501E+02   -0.51824E+01   960   0.609E+01    0.651E+00
DAV:   3    -0.193076844185E+02    0.79911E+00   -0.44372E+00   960   0.831E+00    0.450E+00
DAV:   4    -0.191881296830E+02    0.11955E+00   -0.29191E-01  1032   0.154E+00    0.229E+00
DAV:   5    -0.191691549710E+02    0.18975E-01   -0.54940E-02  1200   0.978E-01    0.105E+00
DAV:   6    -0.191703061117E+02   -0.11511E-02   -0.74762E-03  1224   0.438E-01    0.300E-01
DAV:   7    -0.191706041963E+02   -0.29808E-03   -0.79159E-04  1224   0.119E-01    0.110E-01
DAV:   8    -0.191707008844E+02   -0.96688E-04   -0.15864E-04  1080   0.464E-02    0.189E-02
DAV:   9    -0.191707126550E+02   -0.11771E-04   -0.12733E-05   912   0.123E-02    0.918E-03
DAV:  10    -0.191707159303E+02   -0.32753E-05   -0.61417E-06   816   0.845E-03
   3 F= -.19170716E+02 E0= -.19170716E+02  d E =-.281130E+01
       N       E                     dE             d eps       ncg     rms          rms(c)
DAV:   1    -0.192003925532E+02   -0.29680E-01   -0.61701E-01  1080   0.524E+00    0.130E+00
DAV:   2    -0.191751024493E+02    0.25290E-01   -0.69257E-02   960   0.203E+00    0.401E-01
DAV:   3    -0.191724154719E+02    0.26870E-02   -0.70243E-03   984   0.440E-01    0.359E-01
DAV:   4    -0.191718814315E+02    0.53404E-03   -0.10073E-03   960   0.959E-02    0.648E-02
DAV:   5    -0.191718262735E+02    0.55158E-04   -0.17204E-04  1104   0.909E-02    0.394E-02
DAV:   6    -0.191718257735E+02    0.49996E-06   -0.26091E-05   744   0.285E-02
   4 F= -.19171826E+02 E0= -.19171826E+02  d E =-.281241E+01
