unknown system                          
           1
     6.064227    0.000000    0.000000
     0.000000    6.064227    0.000000
     0.000000    0.000000    6.064227
   Cd   Te
     4     4
Direct configuration=     1
   0.00000000  0.00000000  0.00000000
   0.00000000  0.50000000  0.50000000
   0.50000000  0.00000000  0.50000000
   0.50000000  0.50000000  0.00000000
   0.25000000  0.25000000  0.25000000
   0.25000000  0.75000000  0.75000000
   0.75000000  0.25000000  0.75000000
   0.75000000  0.75000000  0.25000000
unknown system                          
           1
     6.934255    0.000000    0.000000
    -0.000000    6.934255    0.000000
    -0.000000    0.000000    6.934255
   Cd   Te
     4     4
Direct configuration=     2
  -0.00000000  0.00000000 -0.00000000
  -0.00000000  0.50000000  0.50000000
   0.50000000  0.00000000  0.50000000
   0.50000000  0.50000000 -0.00000000
   0.25000000  0.25000000  0.25000000
   0.25000000  0.75000000  0.75000000
   0.75000000  0.25000000  0.75000000
   0.75000000  0.75000000  0.25000000
unknown system                          
           1
     6.614585    0.000000    0.000000
    -0.000000    6.614585    0.000000
    -0.000000    0.000000    6.614585
   Cd   Te
     4     4
Direct configuration=     3
  -0.00000000  0.00000000 -0.00000000
  -0.00000000  0.50000000  0.50000000
   0.50000000  0.00000000  0.50000000
   0.50000000  0.50000000 -0.00000000
   0.25000000  0.25000000  0.25000000
   0.25000000  0.75000000  0.75000000
   0.75000000  0.25000000  0.75000000
   0.75000000  0.75000000  0.25000000
unknown system                          
           1
     6.629067    0.000000    0.000000
    -0.000000    6.629067    0.000000
    -0.000000    0.000000    6.629067
   Cd   Te
     4     4
Direct configuration=     4
  -0.00000000  0.00000000 -0.00000000
  -0.00000000  0.50000000  0.50000000
   0.50000000  0.00000000  0.50000000
   0.50000000  0.50000000 -0.00000000
   0.25000000  0.25000000  0.25000000
   0.25000000  0.75000000  0.75000000
   0.75000000  0.25000000  0.75000000
   0.75000000  0.75000000  0.25000000
