       N       E                     dE             d eps       ncg     rms          rms(c)
DAV:   1     0.338731672955E+03    0.33873E+03   -0.27342E+04   960   0.975E+02
DAV:   2    -0.897374613688E+01   -0.34771E+03   -0.34371E+03  1248   0.263E+02
DAV:   3    -0.199272272760E+02   -0.10953E+02   -0.10948E+02  1104   0.523E+01
DAV:   4    -0.200435089528E+02   -0.11628E+00   -0.11628E+00  1608   0.399E+00
DAV:   5    -0.200438148564E+02   -0.30590E-03   -0.30590E-03  1128   0.175E-01    0.113E+01
DAV:   6    -0.191749649734E+02    0.86885E+00   -0.24799E+00  1032   0.947E+00    0.903E+00
DAV:   7    -0.191181277610E+02    0.56837E-01   -0.84681E-01  1032   0.309E+00    0.314E+00
DAV:   8    -0.191173333564E+02    0.79440E-03   -0.65090E-02  1080   0.185E+00    0.106E+00
DAV:   9    -0.191182339119E+02   -0.90056E-03   -0.72988E-03  1248   0.538E-01    0.233E-01
DAV:  10    -0.191182928025E+02   -0.58891E-04   -0.87398E-04  1248   0.181E-01    0.956E-02
DAV:  11    -0.191184463403E+02   -0.15354E-03   -0.39981E-04  1128   0.113E-01    0.290E-02
DAV:  12    -0.191184578225E+02   -0.11482E-04   -0.80068E-05  1272   0.617E-02    0.140E-02
DAV:  13    -0.191184657691E+02   -0.79466E-05   -0.26667E-05   912   0.259E-02
   1 F= -.19118466E+02 E0= -.19118466E+02  d E =-.191185E+02
