       N       E                     dE             d eps       ncg     rms          rms(c)
DAV:   1    -0.931957918380E+01   -0.93196E+01   -0.50376E+03  4032   0.490E+02
DAV:   2    -0.220216365960E+02   -0.12702E+02   -0.12572E+02  5040   0.443E+01
DAV:   3    -0.220610844413E+02   -0.39448E-01   -0.39448E-01  5040   0.308E+00
DAV:   4    -0.220611603283E+02   -0.75887E-04   -0.75889E-04  5784   0.853E-02
DAV:   5    -0.220611604380E+02   -0.10971E-06   -0.10946E-06  5304   0.170E-03    0.192E+01
DAV:   6    -0.190922498703E+02    0.29689E+01   -0.13007E+01  4176   0.282E+01    0.284E+00
DAV:   7    -0.189979063785E+02    0.94343E-01   -0.14408E-01  5520   0.244E+00    0.176E+00
DAV:   8    -0.189661557123E+02    0.31751E-01   -0.14093E-02  4200   0.934E-01    0.341E-01
DAV:   9    -0.189647477817E+02    0.14079E-02   -0.34291E-03  5424   0.286E-01    0.896E-02
DAV:  10    -0.189646380995E+02    0.10968E-03   -0.10290E-04  2544   0.665E-02    0.992E-03
DAV:  11    -0.189646315567E+02    0.65428E-05   -0.40555E-06  2280   0.124E-02
   1 F= -.18964632E+02 E0= -.18963739E+02  d E =-.178464E-02
