       N       E                     dE             d eps       ncg     rms          rms(c)
DAV:   1    -0.783832998579E+01   -0.78383E+01   -0.38415E+03  5760   0.302E+02
DAV:   2    -0.150462960575E+02   -0.72080E+01   -0.71232E+01  8472   0.254E+01
DAV:   3    -0.150770043622E+02   -0.30708E-01   -0.30704E-01  7608   0.206E+00
DAV:   4    -0.150770555730E+02   -0.51211E-04   -0.51210E-04  9960   0.800E-02
DAV:   5    -0.150770555784E+02   -0.53584E-08   -0.53772E-08  7440   0.687E-04    0.261E+00
DAV:   6    -0.150246750424E+02    0.52381E-01   -0.66210E-03  8376   0.252E-01    0.152E+00
DAV:   7    -0.149864615605E+02    0.38213E-01   -0.18941E-02  7272   0.400E-01    0.266E-01
DAV:   8    -0.149863487187E+02    0.11284E-03   -0.82388E-05 10080   0.351E-02    0.315E-02
DAV:   9    -0.149863404781E+02    0.82406E-05   -0.36652E-06  5448   0.562E-03
   1 F= -.14986340E+02 E0= -.14985288E+02  d E =-.210592E-02
