       N       E                     dE             d eps       ncg     rms          rms(c)
DAV:   1     0.337599388936E+03    0.33760E+03   -0.27292E+04   960   0.972E+02
DAV:   2    -0.881737108766E+01   -0.34642E+03   -0.34286E+03  1200   0.260E+02
DAV:   3    -0.200236978377E+02   -0.11206E+02   -0.11199E+02  1104   0.530E+01
DAV:   4    -0.201430067374E+02   -0.11931E+00   -0.11931E+00  1632   0.410E+00
DAV:   5    -0.201433143643E+02   -0.30763E-03   -0.30763E-03  1152   0.177E-01    0.106E+01
DAV:   6    -0.192633661597E+02    0.87995E+00   -0.25583E+00  1056   0.924E+00    0.858E+00
DAV:   7    -0.192067852064E+02    0.56581E-01   -0.81508E-01  1032   0.297E+00    0.314E+00
DAV:   8    -0.192069688928E+02   -0.18369E-03   -0.57995E-02  1200   0.174E+00    0.100E+00
DAV:   9    -0.192079904362E+02   -0.10215E-02   -0.63321E-03  1128   0.510E-01    0.212E-01
DAV:  10    -0.192080551385E+02   -0.64702E-04   -0.10026E-03  1272   0.187E-01    0.815E-02
DAV:  11    -0.192082097432E+02   -0.15460E-03   -0.37309E-04  1056   0.105E-01    0.259E-02
DAV:  12    -0.192082206778E+02   -0.10935E-04   -0.42296E-05  1368   0.456E-02    0.152E-02
DAV:  13    -0.192082317076E+02   -0.11030E-04   -0.21441E-05   816   0.134E-02    0.120E-02
DAV:  14    -0.192082320609E+02   -0.35328E-06   -0.47315E-06   888   0.975E-03
   1 F= -.19208232E+02 E0= -.19208232E+02  d E =-.192082E+02
