       N       E                     dE             d eps       ncg     rms          rms(c)
DAV:   1    -0.790152506737E+01   -0.79015E+01   -0.39239E+03  5760   0.306E+02
DAV:   2    -0.150516845990E+02   -0.71502E+01   -0.70613E+01  8472   0.255E+01
DAV:   3    -0.150811285468E+02   -0.29444E-01   -0.29439E-01  7752   0.204E+00
DAV:   4    -0.150811745796E+02   -0.46033E-04   -0.46033E-04  9960   0.700E-02
DAV:   5    -0.150811745916E+02   -0.12021E-07   -0.12548E-07  7584   0.750E-04    0.261E+00
DAV:   6    -0.150287912778E+02    0.52383E-01   -0.66003E-03  8640   0.252E-01    0.152E+00
DAV:   7    -0.149906036300E+02    0.38188E-01   -0.18890E-02  7608   0.400E-01    0.266E-01
DAV:   8    -0.149904903883E+02    0.11324E-03   -0.79803E-05 10152   0.344E-02    0.317E-02
DAV:   9    -0.149904820238E+02    0.83645E-05   -0.37183E-06  5784   0.566E-03
   1 F= -.14990482E+02 E0= -.14989614E+02  d E =-.173642E-02
