unknown system                          
   1.00000000000000     
     2.835529    0.000000    0.000000
     0.000000    2.835529    0.000000
     0.000000    0.000000    2.835529
   Cr
     2
Direct
  0.000000  0.000000  0.000000
  0.500000  0.500000  0.500000
 
   28   28   28
 0.81255731463E+02 0.78692556124E+02 0.71398864675E+02 0.60515661073E+02 0.47756408313E+02
 0.35062228264E+02 0.24129519876E+02 0.15980544200E+02 0.10783640582E+02 0.80120631244E+01
 0.68274340846E+01 0.64411700396E+01 0.62923340185E+01 0.62165610689E+01 0.61946922232E+01
 0.62165610689E+01 0.62923340185E+01 0.64411700396E+01 0.68274340846E+01 0.80120631244E+01
 0.10783640582E+02 0.15980544200E+02 0.24129519876E+02 0.35062228264E+02 0.47756408313E+02
 0.60515661073E+02 0.71398864675E+02 0.78692556124E+02 0.78692556124E+02 0.76263496301E+02
 0.69335410963E+02 0.58953571284E+02 0.46713497091E+02 0.34458201833E+02 0.23834097507E+02
 0.15865191138E+02 0.10755095837E+02 0.80193428752E+01 0.68487271984E+01 0.64647152887E+01
 0.63105343488E+01 0.62325218654E+01 0.62100871245E+01 0.62325218654E+01 0.63105343488E+01
 0.64647152887E+01 0.68487271984E+01 0.80193428752E+01 0.10755095837E+02 0.15865191138E+02
 0.23834097507E+02 0.34458201833E+02 0.46713497091E+02 0.58953571284E+02 0.69335410963E+02
 0.76263496301E+02 0.71398864675E+02 0.69335410963E+02 0.63406338971E+02 0.54401726824E+02
 0.43601474713E+02 0.32583402183E+02 0.22854099709E+02 0.15433783807E+02 0.10612050888E+02
 0.80118139033E+01 0.69001700124E+01 0.65274645863E+01 0.63599621953E+01 0.62767502085E+01
 0.62530108491E+01 0.62767502085E+01 0.63599621953E+01 0.65274645863E+01 0.69001700124E+01
 0.80118139033E+01 0.10612050888E+02 0.15433783807E+02 0.22854099709E+02 0.32583402183E+02
 0.43601474713E+02 0.54401726824E+02 0.63406338971E+02 0.69335410963E+02 0.60515661073E+02
 0.58953571284E+02 0.54401726824E+02 0.47317861955E+02 0.38566489841E+02 0.29367474389E+02
 0.21023625511E+02 0.14523471711E+02 0.10244309783E+02 0.79340430919E+01 0.69564778144E+01
 0.66078308020E+01 0.64271318698E+01 0.63393464293E+01 0.63144824245E+01 0.63393464293E+01
 0.64271318698E+01 0.66078308020E+01 0.69564778144E+01 0.79340430919E+01 0.10244309783E+02
 0.14523471711E+02 0.21023625511E+02 0.29367474389E+02 0.38566489841E+02 0.47317861955E+02
 0.54401726824E+02 0.58953571284E+02 0.47756408313E+02 0.46713497091E+02 0.43601474713E+02
 0.38566489841E+02 0.32073648674E+02 0.24979505245E+02 0.18350237029E+02 0.13091326311E+02
 0.96170981859E+01 0.77684027282E+01 0.69998552802E+01 0.66794919807E+01 0.64952111476E+01
 0.64068964609E+01 0.63819355699E+01 0.64068964609E+01 0.64952111476E+01 0.66794919807E+01
 0.69998552802E+01 0.77684027282E+01 0.96170981859E+01 0.13091326311E+02 0.18350237029E+02
 0.24979505245E+02 0.32073648674E+02 0.38566489841E+02 0.43601474713E+02 0.46713497091E+02
 0.35062228264E+02 0.34458201833E+02 0.32583402183E+02 0.29367474389E+02 0.24979505245E+02
 0.19973875466E+02 0.15173853660E+02 0.11340045910E+02 0.88441589747E+01 0.75614120640E+01
 0.70194822522E+01 0.67235271095E+01 0.65493061980E+01 0.64657762457E+01 0.64420034875E+01
 0.64657762457E+01 0.65493061980E+01 0.67235271095E+01 0.70194822522E+01 0.75614120640E+01
 0.88441589747E+01 0.11340045910E+02 0.15173853660E+02 0.19973875466E+02 0.24979505245E+02
 0.29367474389E+02 0.32583402183E+02 0.34458201833E+02 0.24129519876E+02 0.23834097507E+02
 0.22854099709E+02 0.21023625511E+02 0.18350237029E+02 0.15173853660E+02 0.12086538037E+02
 0.96531705665E+01 0.81309103914E+01 0.73776316985E+01 0.69915674404E+01 0.67325878856E+01
 0.65797216187E+01 0.65049154691E+01 0.64831768705E+01 0.65049154691E+01 0.65797216187E+01
 0.67325878856E+01 0.69915674404E+01 0.73776316985E+01 0.81309103914E+01 0.96531705665E+01
 0.12086538037E+02 0.15173853660E+02 0.18350237029E+02 0.21023625511E+02 0.22854099709E+02
 0.23834097507E+02 0.15980544200E+02 0.15865191138E+02 0.15433783807E+02 0.14523471711E+02
 0.13091326311E+02 0.11340045910E+02 0.96531705665E+01 0.83792644267E+01 0.76269377723E+01
 0.72170504265E+01 0.69174199831E+01 0.67092311265E+01 0.65824994502E+01 0.65174472519E+01
 0.64977927292E+01 0.65174472519E+01 0.65824994502E+01 0.67092311265E+01 0.69174199831E+01
 0.72170504265E+01 0.76269377723E+01 0.83792644267E+01 0.96531705665E+01 0.11340045910E+02
 0.13091326311E+02 0.14523471711E+02 0.15433783807E+02 0.15865191138E+02 0.10783640582E+02
 0.10755095837E+02 0.10612050888E+02 0.10244309783E+02 0.96170981859E+01 0.88441589747E+01
 0.81309103914E+01 0.76269377723E+01 0.73060906210E+01 0.70367737305E+01 0.68184992699E+01
 0.66608708783E+01 0.65582547174E+01 0.65013338168E+01 0.64831768705E+01 0.65013338168E+01
 0.65582547174E+01 0.66608708783E+01 0.68184992699E+01 0.70367737305E+01 0.73060906210E+01
 0.76269377723E+01 0.81309103914E+01 0.88441589747E+01 0.96170981859E+01 0.10244309783E+02
 0.10612050888E+02 0.10755095837E+02 0.80120631244E+01 0.80193428752E+01 0.80118139033E+01
 0.79340430919E+01 0.77684027282E+01 0.75614120640E+01 0.73776316985E+01 0.72170504265E+01
 0.70367737305E+01 0.68619899913E+01 0.67127727493E+01 0.65955225142E+01 0.65109342858E+01
 0.64593920835E+01 0.64420034875E+01 0.64593920835E+01 0.65109342858E+01 0.65955225142E+01
 0.67127727493E+01 0.68619899913E+01 0.70367737305E+01 0.72170504265E+01 0.73776316985E+01
 0.75614120640E+01 0.77684027282E+01 0.79340430919E+01 0.80118139033E+01 0.80193428752E+01
 0.68274340846E+01 0.68487271984E+01 0.69001700124E+01 0.69564778144E+01 0.69998552802E+01
 0.70194822522E+01 0.69915674404E+01 0.69174199831E+01 0.68184992699E+01 0.67127727493E+01
 0.66112602744E+01 0.65206757669E+01 0.64474243894E+01 0.63989765253E+01 0.63819355699E+01
 0.63989765253E+01 0.64474243894E+01 0.65206757669E+01 0.66112602744E+01 0.67127727493E+01
 0.68184992699E+01 0.69174199831E+01 0.69915674404E+01 0.70194822522E+01 0.69998552802E+01
 0.69564778144E+01 0.69001700124E+01 0.68487271984E+01 0.64411700396E+01 0.64647152887E+01
 0.65274645863E+01 0.66078308020E+01 0.66794919807E+01 0.67235271095E+01 0.67325878856E+01
 0.67092311265E+01 0.66608708783E+01 0.65955225142E+01 0.65206757669E+01 0.64446124693E+01
 0.63776457053E+01 0.63311748954E+01 0.63144824245E+01 0.63311748954E+01 0.63776457053E+01
 0.64446124693E+01 0.65206757669E+01 0.65955225142E+01 0.66608708783E+01 0.67092311265E+01
 0.67325878856E+01 0.67235271095E+01 0.66794919807E+01 0.66078308020E+01 0.65274645863E+01
 0.64647152887E+01 0.62923340185E+01 0.63105343488E+01 0.63599621953E+01 0.64271318698E+01
 0.64952111476E+01 0.65493061980E+01 0.65797216187E+01 0.65824994502E+01 0.65582547174E+01
 0.65109342858E+01 0.64474243894E+01 0.63776457053E+01 0.63139806593E+01 0.62691753036E+01
 0.62530108491E+01 0.62691753036E+01 0.63139806593E+01 0.63776457053E+01 0.64474243894E+01
 0.65109342858E+01 0.65582547174E+01 0.65824994502E+01 0.65797216187E+01 0.65493061980E+01
 0.64952111476E+01 0.64271318698E+01 0.63599621953E+01 0.63105343488E+01 0.62165610689E+01
 0.62325218654E+01 0.62767502085E+01 0.63393464293E+01 0.64068964609E+01 0.64657762457E+01
 0.65049154691E+01 0.65174472519E+01 0.65013338168E+01 0.64593920835E+01 0.63989765253E+01
 0.63311748954E+01 0.62691753036E+01 0.62257131098E+01 0.62100871245E+01 0.62257131098E+01
 0.62691753036E+01 0.63311748954E+01 0.63989765253E+01 0.64593920835E+01 0.65013338168E+01
 0.65174472519E+01 0.65049154691E+01 0.64657762457E+01 0.64068964609E+01 0.63393464293E+01
 0.62767502085E+01 0.62325218654E+01 0.61946922232E+01 0.62100871245E+01 0.62530108491E+01
 0.63144824245E+01 0.63819355699E+01 0.64420034875E+01 0.64831768705E+01 0.64977927292E+01
 0.64831768705E+01 0.64420034875E+01 0.63819355699E+01 0.63144824245E+01 0.62530108491E+01
 0.62100871245E+01 0.61946922232E+01 0.62100871245E+01 0.62530108491E+01 0.63144824245E+01
 0.63819355699E+01 0.64420034875E+01 0.64831768705E+01 0.64977927292E+01 0.64831768705E+01
 0.64420034875E+01 0.63819355699E+01 0.63144824245E+01 0.62530108491E+01 0.62100871245E+01
 0.62165610689E+01 0.62325218654E+01 0.62767502085E+01 0.63393464293E+01 0.64068964609E+01
 0.64657762457E+01 0.65049154691E+01 0.65174472519E+01 0.65013338168E+01 0.64593920835E+01
 0.63989765253E+01 0.63311748954E+01 0.62691753036E+01 0.62257131098E+01 0.62100871245E+01
 0.62257131098E+01 0.62691753036E+01 0.63311748954E+01 0.63989765253E+01 0.64593920835E+01
 0.65013338168E+01 0.65174472519E+01 0.65049154691E+01 0.64657762457E+01 0.64068964609E+01
 0.63393464293E+01 0.62767502085E+01 0.62325218654E+01 0.62923340185E+01 0.63105343488E+01
 0.63599621953E+01 0.64271318698E+01 0.64952111476E+01 0.65493061980E+01 0.65797216187E+01
 0.65824994502E+01 0.65582547174E+01 0.65109342858E+01 0.64474243894E+01 0.63776457053E+01
 0.63139806593E+01 0.62691753036E+01 0.62530108491E+01 0.62691753036E+01 0.63139806593E+01
 0.63776457053E+01 0.64474243894E+01 0.65109342858E+01 0.65582547174E+01 0.65824994502E+01
 0.65797216187E+01 0.65493061980E+01 0.64952111476E+01 0.64271318698E+01 0.63599621953E+01
 0.63105343488E+01 0.64411700396E+01 0.64647152887E+01 0.65274645863E+01 0.66078308020E+01
 0.66794919807E+01 0.67235271095E+01 0.67325878856E+01 0.67092311265E+01 0.66608708783E+01
 0.65955225142E+01 0.65206757669E+01 0.64446124693E+01 0.63776457053E+01 0.63311748954E+01
 0.63144824245E+01 0.63311748954E+01 0.63776457053E+01 0.64446124693E+01 0.65206757669E+01
 0.65955225142E+01 0.66608708783E+01 0.67092311265E+01 0.67325878856E+01 0.67235271095E+01
 0.66794919807E+01 0.66078308020E+01 0.65274645863E+01 0.64647152887E+01 0.68274340846E+01
 0.68487271984E+01 0.69001700124E+01 0.69564778144E+01 0.69998552802E+01 0.70194822522E+01
 0.69915674404E+01 0.69174199831E+01 0.68184992699E+01 0.67127727493E+01 0.66112602744E+01
 0.65206757669E+01 0.64474243894E+01 0.63989765253E+01 0.63819355699E+01 0.63989765253E+01
 0.64474243894E+01 0.65206757669E+01 0.66112602744E+01 0.67127727493E+01 0.68184992699E+01
 0.69174199831E+01 0.69915674404E+01 0.70194822522E+01 0.69998552802E+01 0.69564778144E+01
 0.69001700124E+01 0.68487271984E+01 0.80120631244E+01 0.80193428752E+01 0.80118139033E+01
 0.79340430919E+01 0.77684027282E+01 0.75614120640E+01 0.73776316985E+01 0.72170504265E+01
 0.70367737305E+01 0.68619899913E+01 0.67127727493E+01 0.65955225142E+01 0.65109342858E+01
 0.64593920835E+01 0.64420034875E+01 0.64593920835E+01 0.65109342858E+01 0.65955225142E+01
 0.67127727493E+01 0.68619899913E+01 0.70367737305E+01 0.72170504265E+01 0.73776316985E+01
 0.75614120640E+01 0.77684027282E+01 0.79340430919E+01 0.80118139033E+01 0.80193428752E+01
 0.10783640582E+02 0.10755095837E+02 0.10612050888E+02 0.10244309783E+02 0.96170981859E+01
 0.88441589747E+01 0.81309103914E+01 0.76269377723E+01 0.73060906210E+01 0.70367737305E+01
 0.68184992699E+01 0.66608708783E+01 0.65582547174E+01 0.65013338168E+01 0.64831768705E+01
 0.65013338168E+01 0.65582547174E+01 0.66608708783E+01 0.68184992699E+01 0.70367737305E+01
 0.73060906210E+01 0.76269377723E+01 0.81309103914E+01 0.88441589747E+01 0.96170981859E+01
 0.10244309783E+02 0.10612050888E+02 0.10755095837E+02 0.15980544200E+02 0.15865191138E+02
 0.15433783807E+02 0.14523471711E+02 0.13091326311E+02 0.11340045910E+02 0.96531705665E+01
 0.83792644267E+01 0.76269377723E+01 0.72170504265E+01 0.69174199831E+01 0.67092311265E+01
 0.65824994502E+01 0.65174472519E+01 0.64977927292E+01 0.65174472519E+01 0.65824994502E+01
 0.67092311265E+01 0.69174199831E+01 0.72170504265E+01 0.76269377723E+01 0.83792644267E+01
 0.96531705665E+01 0.11340045910E+02 0.13091326311E+02 0.14523471711E+02 0.15433783807E+02
 0.15865191138E+02 0.24129519876E+02 0.23834097507E+02 0.22854099709E+02 0.21023625511E+02
 0.18350237029E+02 0.15173853660E+02 0.12086538037E+02 0.96531705665E+01 0.81309103914E+01
 0.73776316985E+01 0.69915674404E+01 0.67325878856E+01 0.65797216187E+01 0.65049154691E+01
 0.64831768705E+01 0.65049154691E+01 0.65797216187E+01 0.67325878856E+01 0.69915674404E+01
 0.73776316985E+01 0.81309103914E+01 0.96531705665E+01 0.12086538037E+02 0.15173853660E+02
 0.18350237029E+02 0.21023625511E+02 0.22854099709E+02 0.23834097507E+02 0.35062228264E+02
 0.34458201833E+02 0.32583402183E+02 0.29367474389E+02 0.24979505245E+02 0.19973875466E+02
 0.15173853660E+02 0.11340045910E+02 0.88441589747E+01 0.75614120640E+01 0.70194822522E+01
 0.67235271095E+01 0.65493061980E+01 0.64657762457E+01 0.64420034875E+01 0.64657762457E+01
 0.65493061980E+01 0.67235271095E+01 0.70194822522E+01 0.75614120640E+01 0.88441589747E+01
 0.11340045910E+02 0.15173853660E+02 0.19973875466E+02 0.24979505245E+02 0.29367474389E+02
 0.32583402183E+02 0.34458201833E+02 0.47756408313E+02 0.46713497091E+02 0.43601474713E+02
 0.38566489841E+02 0.32073648674E+02 0.24979505245E+02 0.18350237029E+02 0.13091326311E+02
 0.96170981859E+01 0.77684027282E+01 0.69998552802E+01 0.66794919807E+01 0.64952111476E+01
 0.64068964609E+01 0.63819355699E+01 0.64068964609E+01 0.64952111476E+01 0.66794919807E+01
 0.69998552802E+01 0.77684027282E+01 0.96170981859E+01 0.13091326311E+02 0.18350237029E+02
 0.24979505245E+02 0.32073648674E+02 0.38566489841E+02 0.43601474713E+02 0.46713497091E+02
 0.60515661073E+02 0.58953571284E+02 0.54401726824E+02 0.47317861955E+02 0.38566489841E+02
 0.29367474389E+02 0.21023625511E+02 0.14523471711E+02 0.10244309783E+02 0.79340430919E+01
 0.69564778144E+01 0.66078308020E+01 0.64271318698E+01 0.63393464293E+01 0.63144824245E+01
 0.63393464293E+01 0.64271318698E+01 0.66078308020E+01 0.69564778144E+01 0.79340430919E+01
 0.10244309783E+02 0.14523471711E+02 0.21023625511E+02 0.29367474389E+02 0.38566489841E+02
 0.47317861955E+02 0.54401726824E+02 0.58953571284E+02 0.71398864675E+02 0.69335410963E+02
 0.63406338971E+02 0.54401726824E+02 0.43601474713E+02 0.32583402183E+02 0.22854099709E+02
 0.15433783807E+02 0.10612050888E+02 0.80118139033E+01 0.69001700124E+01 0.65274645863E+01
 0.63599621953E+01 0.62767502085E+01 0.62530108491E+01 0.62767502085E+01 0.63599621953E+01
 0.65274645863E+01 0.69001700124E+01 0.80118139033E+01 0.10612050888E+02 0.15433783807E+02
 0.22854099709E+02 0.32583402183E+02 0.43601474713E+02 0.54401726824E+02 0.63406338971E+02
 0.69335410963E+02 0.78692556124E+02 0.76263496301E+02 0.69335410963E+02 0.58953571284E+02
 0.46713497091E+02 0.34458201833E+02 0.23834097507E+02 0.15865191138E+02 0.10755095837E+02
 0.80193428752E+01 0.68487271984E+01 0.64647152887E+01 0.63105343488E+01 0.62325218654E+01
 0.62100871245E+01 0.62325218654E+01 0.63105343488E+01 0.64647152887E+01 0.68487271984E+01
 0.80193428752E+01 0.10755095837E+02 0.15865191138E+02 0.23834097507E+02 0.34458201833E+02
 0.46713497091E+02 0.58953571284E+02 0.69335410963E+02 0.76263496301E+02 0.78692556124E+02
 0.76263496301E+02 0.69335410963E+02 0.58953571284E+02 0.46713497091E+02 0.34458201833E+02
 0.23834097507E+02 0.15865191138E+02 0.10755095837E+02 0.80193428752E+01 0.68487271984E+01
 0.64647152887E+01 0.63105343488E+01 0.62325218654E+01 0.62100871245E+01 0.62325218654E+01
 0.63105343488E+01 0.64647152887E+01 0.68487271984E+01 0.80193428752E+01 0.10755095837E+02
 0.15865191138E+02 0.23834097507E+02 0.34458201833E+02 0.46713497091E+02 0.58953571284E+02
 0.69335410963E+02 0.76263496301E+02 0.76263496301E+02 0.73959421995E+02 0.67372337002E+02
 0.57459010346E+02 0.45705814973E+02 0.33864709352E+02 0.23535203766E+02 0.15741947740E+02
 0.10720106280E+02 0.80234151582E+01 0.68691302773E+01 0.64879573388E+01 0.63287350865E+01
 0.62486694074E+01 0.62257131098E+01 0.62486694074E+01 0.63287350865E+01 0.64879573388E+01
 0.68691302773E+01 0.80234151582E+01 0.10720106280E+02 0.15741947740E+02 0.23535203766E+02
 0.33864709352E+02 0.45705814973E+02 0.57459010346E+02 0.67372337002E+02 0.73959421995E+02
 0.69335410963E+02 0.67372337002E+02 0.61717984484E+02 0.53093453542E+02 0.42693179450E+02
 0.32022808505E+02 0.22550169226E+02 0.15293020041E+02 0.10562503590E+02 0.80089280866E+01
 0.69187806834E+01 0.65496884758E+01 0.63781015875E+01 0.62933217400E+01 0.62691753036E+01
 0.62933217400E+01 0.63781015875E+01 0.65496884758E+01 0.69187806834E+01 0.80089280866E+01
 0.10562503590E+02 0.15293020041E+02 0.22550169226E+02 0.32022808505E+02 0.42693179450E+02
 0.53093453542E+02 0.61717984484E+02 0.67372337002E+02 0.58953571284E+02 0.57459010346E+02
 0.53093453542E+02 0.46271804257E+02 0.37804627025E+02 0.28864460542E+02 0.20725751070E+02
 0.14370144848E+02 0.10183238849E+02 0.79264008646E+01 0.69740862536E+01 0.66282112381E+01
 0.64450566930E+01 0.63563064359E+01 0.63311748954E+01 0.63563064359E+01 0.64450566930E+01
 0.66282112381E+01 0.69740862536E+01 0.79264008646E+01 0.10183238849E+02 0.14370144848E+02
 0.20725751070E+02 0.28864460542E+02 0.37804627025E+02 0.46271804257E+02 0.53093453542E+02
 0.57459010346E+02 0.46713497091E+02 0.45705814973E+02 0.42693179450E+02 0.37804627025E+02
 0.31482029981E+02 0.24558436160E+02 0.18081205875E+02 0.12944288046E+02 0.95576386999E+01
 0.77628344962E+01 0.70177597153E+01 0.66980669927E+01 0.65128388714E+01 0.64240870952E+01
 0.63989765253E+01 0.64240870952E+01 0.65128388714E+01 0.66980669927E+01 0.70177597153E+01
 0.77628344962E+01 0.95576386999E+01 0.12944288046E+02 0.18081205875E+02 0.24558436160E+02
 0.31482029981E+02 0.37804627025E+02 0.42693179450E+02 0.45705814973E+02 0.34458201833E+02
 0.33864709352E+02 0.32022808505E+02 0.28864460542E+02 0.24558436160E+02 0.19653012558E+02
 0.14959280373E+02 0.11222725759E+02 0.88018278695E+01 0.75642818687E+01 0.70370600163E+01
 0.67410050920E+01 0.65668697195E+01 0.64832428170E+01 0.64593920835E+01 0.64832428170E+01
 0.65668697195E+01 0.67410050920E+01 0.70370600163E+01 0.75642818687E+01 0.88018278695E+01
 0.11222725759E+02 0.14959280373E+02 0.19653012558E+02 0.24558436160E+02 0.28864460542E+02
 0.32022808505E+02 0.33864709352E+02 0.23834097507E+02 0.23535203766E+02 0.22550169226E+02
 0.20725751070E+02 0.18081205875E+02 0.14959280373E+02 0.11943248816E+02 0.95814257923E+01
 0.81142742909E+01 0.73895750231E+01 0.70078655743E+01 0.67501448809E+01 0.65978707158E+01
 0.65231205122E+01 0.65013338168E+01 0.65231205122E+01 0.65978707158E+01 0.67501448809E+01
 0.70078655743E+01 0.73895750231E+01 0.81142742909E+01 0.95814257923E+01 0.11943248816E+02
 0.14959280373E+02 0.18081205875E+02 0.20725751070E+02 0.22550169226E+02 0.23535203766E+02
 0.15865191138E+02 0.15741947740E+02 0.15293020041E+02 0.14370144848E+02 0.12944288046E+02
 0.11222725759E+02 0.95814257923E+01 0.83535175948E+01 0.76324882789E+01 0.72318280702E+01
 0.69345766581E+01 0.67281170302E+01 0.66021060455E+01 0.65371432395E+01 0.65174472519E+01
 0.65371432395E+01 0.66021060455E+01 0.67281170302E+01 0.69345766581E+01 0.72318280702E+01
 0.76324882789E+01 0.83535175948E+01 0.95814257923E+01 0.11222725759E+02 0.12944288046E+02
 0.14370144848E+02 0.15293020041E+02 0.15741947740E+02 0.10755095837E+02 0.10720106280E+02
 0.10562503590E+02 0.10183238849E+02 0.95576386999E+01 0.88018278695E+01 0.81142742909E+01
 0.76324882789E+01 0.73201714915E+01 0.70535169671E+01 0.68378923855E+01 0.66819437169E+01
 0.65799812773E+01 0.65231205122E+01 0.65049154691E+01 0.65231205122E+01 0.65799812773E+01
 0.66819437169E+01 0.68378923855E+01 0.70535169671E+01 0.73201714915E+01 0.76324882789E+01
 0.81142742909E+01 0.88018278695E+01 0.95576386999E+01 0.10183238849E+02 0.10562503590E+02
 0.10720106280E+02 0.80193428752E+01 0.80234151582E+01 0.80089280866E+01 0.79264008646E+01
 0.77628344962E+01 0.75642818687E+01 0.73895750231E+01 0.72318280702E+01 0.70535169671E+01
 0.68815527508E+01 0.67347472545E+01 0.66189225322E+01 0.65348177632E+01 0.64832428170E+01
 0.64657762457E+01 0.64832428170E+01 0.65348177632E+01 0.66189225322E+01 0.67347472545E+01
 0.68815527508E+01 0.70535169671E+01 0.72318280702E+01 0.73895750231E+01 0.75642818687E+01
 0.77628344962E+01 0.79264008646E+01 0.80089280866E+01 0.80234151582E+01 0.68487271984E+01
 0.68691302773E+01 0.69187806834E+01 0.69740862536E+01 0.70177597153E+01 0.70370600163E+01
 0.70078655743E+01 0.69345766581E+01 0.68378923855E+01 0.67347472545E+01 0.66352932701E+01
 0.65458053377E+01 0.64727620531E+01 0.64240870952E+01 0.64068964609E+01 0.64240870952E+01
 0.64727620531E+01 0.65458053377E+01 0.66352932701E+01 0.67347472545E+01 0.68378923855E+01
 0.69345766581E+01 0.70078655743E+01 0.70370600163E+01 0.70177597153E+01 0.69740862536E+01
 0.69187806834E+01 0.68691302773E+01 0.64647152887E+01 0.64879573388E+01 0.65496884758E+01
 0.66282112381E+01 0.66980669927E+01 0.67410050920E+01 0.67501448809E+01 0.67281170302E+01
 0.66819437169E+01 0.66189225322E+01 0.65458053377E+01 0.64704601308E+01 0.64033114987E+01
 0.63563064359E+01 0.63393464293E+01 0.63563064359E+01 0.64033114987E+01 0.64704601308E+01
 0.65458053377E+01 0.66189225322E+01 0.66819437169E+01 0.67281170302E+01 0.67501448809E+01
 0.67410050920E+01 0.66980669927E+01 0.66282112381E+01 0.65496884758E+01 0.64879573388E+01
 0.63105343488E+01 0.63287350865E+01 0.63781015875E+01 0.64450566930E+01 0.65128388714E+01
 0.65668697195E+01 0.65978707158E+01 0.66021060455E+01 0.65799812773E+01 0.65348177632E+01
 0.64727620531E+01 0.64033114987E+01 0.63390217625E+01 0.62933217400E+01 0.62767502085E+01
 0.62933217400E+01 0.63390217625E+01 0.64033114987E+01 0.64727620531E+01 0.65348177632E+01
 0.65799812773E+01 0.66021060455E+01 0.65978707158E+01 0.65668697195E+01 0.65128388714E+01
 0.64450566930E+01 0.63781015875E+01 0.63287350865E+01 0.62325218654E+01 0.62486694074E+01
 0.62933217400E+01 0.63563064359E+01 0.64240870952E+01 0.64832428170E+01 0.65231205122E+01
 0.65371432395E+01 0.65231205122E+01 0.64832428170E+01 0.64240870952E+01 0.63563064359E+01
 0.62933217400E+01 0.62486694074E+01 0.62325218654E+01 0.62486694074E+01 0.62933217400E+01
 0.63563064359E+01 0.64240870952E+01 0.64832428170E+01 0.65231205122E+01 0.65371432395E+01
 0.65231205122E+01 0.64832428170E+01 0.64240870952E+01 0.63563064359E+01 0.62933217400E+01
 0.62486694074E+01 0.62100871245E+01 0.62257131098E+01 0.62691753036E+01 0.63311748954E+01
 0.63989765253E+01 0.64593920835E+01 0.65013338168E+01 0.65174472519E+01 0.65049154691E+01
 0.64657762457E+01 0.64068964609E+01 0.63393464293E+01 0.62767502085E+01 0.62325218654E+01
 0.62165610689E+01 0.62325218654E+01 0.62767502085E+01 0.63393464293E+01 0.64068964609E+01
 0.64657762457E+01 0.65049154691E+01 0.65174472519E+01 0.65013338168E+01 0.64593920835E+01
 0.63989765253E+01 0.63311748954E+01 0.62691753036E+01 0.62257131098E+01 0.62325218654E+01
 0.62486694074E+01 0.62933217400E+01 0.63563064359E+01 0.64240870952E+01 0.64832428170E+01
 0.65231205122E+01 0.65371432395E+01 0.65231205122E+01 0.64832428170E+01 0.64240870952E+01
 0.63563064359E+01 0.62933217400E+01 0.62486694074E+01 0.62325218654E+01 0.62486694074E+01
 0.62933217400E+01 0.63563064359E+01 0.64240870952E+01 0.64832428170E+01 0.65231205122E+01
 0.65371432395E+01 0.65231205122E+01 0.64832428170E+01 0.64240870952E+01 0.63563064359E+01
 0.62933217400E+01 0.62486694074E+01 0.63105343488E+01 0.63287350865E+01 0.63781015875E+01
 0.64450566930E+01 0.65128388714E+01 0.65668697195E+01 0.65978707158E+01 0.66021060455E+01
 0.65799812773E+01 0.65348177632E+01 0.64727620531E+01 0.64033114987E+01 0.63390217625E+01
 0.62933217400E+01 0.62767502085E+01 0.62933217400E+01 0.63390217625E+01 0.64033114987E+01
 0.64727620531E+01 0.65348177632E+01 0.65799812773E+01 0.66021060455E+01 0.65978707158E+01
 0.65668697195E+01 0.65128388714E+01 0.64450566930E+01 0.63781015875E+01 0.63287350865E+01
 0.64647152887E+01 0.64879573388E+01 0.65496884758E+01 0.66282112381E+01 0.66980669927E+01
 0.67410050920E+01 0.67501448809E+01 0.67281170302E+01 0.66819437169E+01 0.66189225322E+01
 0.65458053377E+01 0.64704601308E+01 0.64033114987E+01 0.63563064359E+01 0.63393464293E+01
 0.63563064359E+01 0.64033114987E+01 0.64704601308E+01 0.65458053377E+01 0.66189225322E+01
 0.66819437169E+01 0.67281170302E+01 0.67501448809E+01 0.67410050920E+01 0.66980669927E+01
 0.66282112381E+01 0.65496884758E+01 0.64879573388E+01 0.68487271984E+01 0.68691302773E+01
 0.69187806834E+01 0.69740862536E+01 0.70177597153E+01 0.70370600163E+01 0.70078655743E+01
 0.69345766581E+01 0.68378923855E+01 0.67347472545E+01 0.66352932701E+01 0.65458053377E+01
 0.64727620531E+01 0.64240870952E+01 0.64068964609E+01 0.64240870952E+01 0.64727620531E+01
 0.65458053377E+01 0.66352932701E+01 0.67347472545E+01 0.68378923855E+01 0.69345766581E+01
 0.70078655743E+01 0.70370600163E+01 0.70177597153E+01 0.69740862536E+01 0.69187806834E+01
 0.68691302773E+01 0.80193428752E+01 0.80234151582E+01 0.80089280866E+01 0.79264008646E+01
 0.77628344962E+01 0.75642818687E+01 0.73895750231E+01 0.72318280702E+01 0.70535169671E+01
 0.68815527508E+01 0.67347472545E+01 0.66189225322E+01 0.65348177632E+01 0.64832428170E+01
 0.64657762457E+01 0.64832428170E+01 0.65348177632E+01 0.66189225322E+01 0.67347472545E+01
 0.68815527508E+01 0.70535169671E+01 0.72318280702E+01 0.73895750231E+01 0.75642818687E+01
 0.77628344962E+01 0.79264008646E+01 0.80089280866E+01 0.80234151582E+01 0.10755095837E+02
 0.10720106280E+02 0.10562503590E+02 0.10183238849E+02 0.95576386999E+01 0.88018278695E+01
 0.81142742909E+01 0.76324882789E+01 0.73201714915E+01 0.70535169671E+01 0.68378923855E+01
 0.66819437169E+01 0.65799812773E+01 0.65231205122E+01 0.65049154691E+01 0.65231205122E+01
 0.65799812773E+01 0.66819437169E+01 0.68378923855E+01 0.70535169671E+01 0.73201714915E+01
 0.76324882789E+01 0.81142742909E+01 0.88018278695E+01 0.95576386999E+01 0.10183238849E+02
 0.10562503590E+02 0.10720106280E+02 0.15865191138E+02 0.15741947740E+02 0.15293020041E+02
 0.14370144848E+02 0.12944288046E+02 0.11222725759E+02 0.95814257923E+01 0.83535175948E+01
 0.76324882789E+01 0.72318280702E+01 0.69345766581E+01 0.67281170302E+01 0.66021060455E+01
 0.65371432395E+01 0.65174472519E+01 0.65371432395E+01 0.66021060455E+01 0.67281170302E+01
 0.69345766581E+01 0.72318280702E+01 0.76324882789E+01 0.83535175948E+01 0.95814257923E+01
 0.11222725759E+02 0.12944288046E+02 0.14370144848E+02 0.15293020041E+02 0.15741947740E+02
 0.23834097507E+02 0.23535203766E+02 0.22550169226E+02 0.20725751070E+02 0.18081205875E+02
 0.14959280373E+02 0.11943248816E+02 0.95814257923E+01 0.81142742909E+01 0.73895750231E+01
 0.70078655743E+01 0.67501448809E+01 0.65978707158E+01 0.65231205122E+01 0.65013338168E+01
 0.65231205122E+01 0.65978707158E+01 0.67501448809E+01 0.70078655743E+01 0.73895750231E+01
 0.81142742909E+01 0.95814257923E+01 0.11943248816E+02 0.14959280373E+02 0.18081205875E+02
 0.20725751070E+02 0.22550169226E+02 0.23535203766E+02 0.34458201833E+02 0.33864709352E+02
 0.32022808505E+02 0.28864460542E+02 0.24558436160E+02 0.19653012558E+02 0.14959280373E+02
 0.11222725759E+02 0.88018278695E+01 0.75642818687E+01 0.70370600163E+01 0.67410050920E+01
 0.65668697195E+01 0.64832428170E+01 0.64593920835E+01 0.64832428170E+01 0.65668697195E+01
 0.67410050920E+01 0.70370600163E+01 0.75642818687E+01 0.88018278695E+01 0.11222725759E+02
 0.14959280373E+02 0.19653012558E+02 0.24558436160E+02 0.28864460542E+02 0.32022808505E+02
 0.33864709352E+02 0.46713497091E+02 0.45705814973E+02 0.42693179450E+02 0.37804627025E+02
 0.31482029981E+02 0.24558436160E+02 0.18081205875E+02 0.12944288046E+02 0.95576386999E+01
 0.77628344962E+01 0.70177597153E+01 0.66980669927E+01 0.65128388714E+01 0.64240870952E+01
 0.63989765253E+01 0.64240870952E+01 0.65128388714E+01 0.66980669927E+01 0.70177597153E+01
 0.77628344962E+01 0.95576386999E+01 0.12944288046E+02 0.18081205875E+02 0.24558436160E+02
 0.31482029981E+02 0.37804627025E+02 0.42693179450E+02 0.45705814973E+02 0.58953571284E+02
 0.57459010346E+02 0.53093453542E+02 0.46271804257E+02 0.37804627025E+02 0.28864460542E+02
 0.20725751070E+02 0.14370144848E+02 0.10183238849E+02 0.79264008646E+01 0.69740862536E+01
 0.66282112381E+01 0.64450566930E+01 0.63563064359E+01 0.63311748954E+01 0.63563064359E+01
 0.64450566930E+01 0.66282112381E+01 0.69740862536E+01 0.79264008646E+01 0.10183238849E+02
 0.14370144848E+02 0.20725751070E+02 0.28864460542E+02 0.37804627025E+02 0.46271804257E+02
 0.53093453542E+02 0.57459010346E+02 0.69335410963E+02 0.67372337002E+02 0.61717984484E+02
 0.53093453542E+02 0.42693179450E+02 0.32022808505E+02 0.22550169226E+02 0.15293020041E+02
 0.10562503590E+02 0.80089280866E+01 0.69187806834E+01 0.65496884758E+01 0.63781015875E+01
 0.62933217400E+01 0.62691753036E+01 0.62933217400E+01 0.63781015875E+01 0.65496884758E+01
 0.69187806834E+01 0.80089280866E+01 0.10562503590E+02 0.15293020041E+02 0.22550169226E+02
 0.32022808505E+02 0.42693179450E+02 0.53093453542E+02 0.61717984484E+02 0.67372337002E+02
 0.76263496301E+02 0.73959421995E+02 0.67372337002E+02 0.57459010346E+02 0.45705814973E+02
 0.33864709352E+02 0.23535203766E+02 0.15741947740E+02 0.10720106280E+02 0.80234151582E+01
 0.68691302773E+01 0.64879573388E+01 0.63287350865E+01 0.62486694074E+01 0.62257131098E+01
 0.62486694074E+01 0.63287350865E+01 0.64879573388E+01 0.68691302773E+01 0.80234151582E+01
 0.10720106280E+02 0.15741947740E+02 0.23535203766E+02 0.33864709352E+02 0.45705814973E+02
 0.57459010346E+02 0.67372337002E+02 0.73959421995E+02 0.71398864675E+02 0.69335410963E+02
 0.63406338971E+02 0.54401726824E+02 0.43601474713E+02 0.32583402183E+02 0.22854099709E+02
 0.15433783807E+02 0.10612050888E+02 0.80118139033E+01 0.69001700124E+01 0.65274645863E+01
 0.63599621953E+01 0.62767502085E+01 0.62530108491E+01 0.62767502085E+01 0.63599621953E+01
 0.65274645863E+01 0.69001700124E+01 0.80118139033E+01 0.10612050888E+02 0.15433783807E+02
 0.22854099709E+02 0.32583402183E+02 0.43601474713E+02 0.54401726824E+02 0.63406338971E+02
 0.69335410963E+02 0.69335410963E+02 0.67372337002E+02 0.61717984484E+02 0.53093453542E+02
 0.42693179450E+02 0.32022808505E+02 0.22550169226E+02 0.15293020041E+02 0.10562503590E+02
 0.80089280866E+01 0.69187806834E+01 0.65496884758E+01 0.63781015875E+01 0.62933217400E+01
 0.62691753036E+01 0.62933217400E+01 0.63781015875E+01 0.65496884758E+01 0.69187806834E+01
 0.80089280866E+01 0.10562503590E+02 0.15293020041E+02 0.22550169226E+02 0.32022808505E+02
 0.42693179450E+02 0.53093453542E+02 0.61717984484E+02 0.67372337002E+02 0.63406338971E+02
 0.61717984484E+02 0.56817871874E+02 0.49244089161E+02 0.39962808049E+02 0.30283863313E+02