<?xml version="1.0" encoding="ISO-8859-1"?>
<modeling>
 <generator>
  <i name="program" type="string">vasp </i>
  <i name="version" type="string">6.3.0  </i>
  <i name="subversion" type="string">20Jan22 (build Feb 10 2022 15:15:41) complex                          parallel </i>
  <i name="platform" type="string">LinuxIFC </i>
  <i name="date" type="string">2023 09 27 </i>
  <i name="time" type="string">12:43:55 </i>
 </generator>
 <incar>
  <i type="int" name="ICHARG">    11</i>
  <i name="ENCUT">    400.00000000</i>
  <i type="int" name="ISMEAR">     0</i>
  <i name="SIGMA">      0.05000000</i>
  <i type="int" name="LORBIT">    11</i>
 </incar>
 <primitive_cell>
  <structure name="primitive_cell" >
   <crystal>
    <varray name="basis" >
     <v>       1.41776452       1.41776452      -1.41776452 </v>
     <v>      -1.41776452       1.41776452       1.41776452 </v>
     <v>       1.41776452      -1.41776452       1.41776452 </v>
    </varray>
    <i name="volume">     11.39914575 </i>
    <varray name="rec_basis" >
     <v>       0.35266787       0.35266787      -0.00000000 </v>
     <v>      -0.00000000       0.35266787       0.35266787 </v>
     <v>       0.35266787      -0.00000000       0.35266787 </v>
    </varray>
   </crystal>
   <varray name="positions" >
    <v>       0.00000000       0.00000000       0.00000000 </v>
   </varray>
  </structure>
  <varray name="primitive_index" >
   <v type="int" >        1 </v>
  </varray>
 </primitive_cell>
 <kpoints>
  <generation param="Gamma">
   <v type="int" name="divisions">      11       11       11 </v>
   <v name="usershift">      0.00000000       0.00000000       0.00000000 </v>
   <v name="genvec1">      0.09090909       0.00000000       0.00000000 </v>
   <v name="genvec2">      0.00000000       0.09090909       0.00000000 </v>
   <v name="genvec3">      0.00000000       0.00000000       0.09090909 </v>
   <v name="shift">      0.00000000       0.00000000       0.00000000 </v>
  </generation>
  <varray name="kpointlist" >
   <v>       0.00000000       0.00000000       0.00000000 </v>
   <v>       0.09090909       0.00000000       0.00000000 </v>
   <v>       0.18181818       0.00000000       0.00000000 </v>
   <v>       0.27272727       0.00000000       0.00000000 </v>
   <v>       0.36363636       0.00000000       0.00000000 </v>
   <v>       0.45454545       0.00000000       0.00000000 </v>
   <v>       0.09090909       0.09090909       0.00000000 </v>
   <v>       0.18181818       0.09090909       0.00000000 </v>
   <v>       0.27272727       0.09090909       0.00000000 </v>
   <v>       0.36363636       0.09090909       0.00000000 </v>
   <v>       0.45454545       0.09090909       0.00000000 </v>
   <v>       0.18181818       0.18181818       0.00000000 </v>
   <v>       0.27272727       0.18181818       0.00000000 </v>
   <v>       0.36363636       0.18181818       0.00000000 </v>
   <v>       0.45454545       0.18181818       0.00000000 </v>
   <v>       0.27272727       0.27272727       0.00000000 </v>
   <v>       0.36363636       0.27272727       0.00000000 </v>
   <v>       0.45454545       0.27272727       0.00000000 </v>
   <v>       0.36363636       0.36363636       0.00000000 </v>
   <v>       0.45454545       0.36363636       0.00000000 </v>
   <v>       0.45454545       0.45454545       0.00000000 </v>
   <v>       0.09090909       0.09090909       0.09090909 </v>
   <v>       0.18181818       0.09090909       0.09090909 </v>
   <v>       0.27272727       0.09090909       0.09090909 </v>
   <v>       0.36363636       0.09090909       0.09090909 </v>
   <v>       0.45454545       0.09090909       0.09090909 </v>
   <v>       0.18181818       0.18181818       0.09090909 </v>
   <v>       0.27272727       0.18181818       0.09090909 </v>
   <v>       0.36363636       0.18181818       0.09090909 </v>
   <v>       0.45454545       0.18181818       0.09090909 </v>
   <v>       0.27272727       0.27272727       0.09090909 </v>
   <v>       0.36363636       0.27272727       0.09090909 </v>
   <v>       0.45454545       0.27272727       0.09090909 </v>
   <v>       0.36363636       0.36363636       0.09090909 </v>
   <v>       0.45454545       0.36363636       0.09090909 </v>
   <v>       0.45454545       0.45454545       0.09090909 </v>
   <v>       0.18181818       0.18181818       0.18181818 </v>
   <v>       0.27272727       0.18181818       0.18181818 </v>
   <v>       0.36363636       0.18181818       0.18181818 </v>
   <v>       0.45454545       0.18181818       0.18181818 </v>
   <v>       0.27272727       0.27272727       0.18181818 </v>
   <v>       0.36363636       0.27272727       0.18181818 </v>
   <v>       0.45454545       0.27272727       0.18181818 </v>
   <v>       0.36363636       0.36363636       0.18181818 </v>
   <v>       0.45454545       0.36363636       0.18181818 </v>
   <v>       0.45454545       0.45454545       0.18181818 </v>
   <v>       0.27272727       0.27272727       0.27272727 </v>
   <v>       0.36363636       0.27272727       0.27272727 </v>
   <v>       0.45454545       0.27272727       0.27272727 </v>
   <v>       0.36363636       0.36363636       0.27272727 </v>
   <v>       0.45454545       0.36363636       0.27272727 </v>
   <v>       0.45454545       0.45454545       0.27272727 </v>
   <v>       0.36363636       0.36363636       0.36363636 </v>
   <v>       0.45454545       0.36363636       0.36363636 </v>
   <v>       0.45454545       0.45454545       0.36363636 </v>
   <v>       0.45454545       0.45454545       0.45454545 </v>
  </varray>
  <varray name="weights" >
   <v>       0.00075131 </v>
   <v>       0.00450789 </v>
   <v>       0.00450789 </v>
   <v>       0.00450789 </v>
   <v>       0.00450789 </v>
   <v>       0.00450789 </v>
   <v>       0.00901578 </v>
   <v>       0.01803156 </v>
   <v>       0.01803156 </v>
   <v>       0.01803156 </v>
   <v>       0.01803156 </v>
   <v>       0.00901578 </v>
   <v>       0.01803156 </v>
   <v>       0.01803156 </v>
   <v>       0.01803156 </v>
   <v>       0.00901578 </v>
   <v>       0.01803156 </v>
   <v>       0.01803156 </v>
   <v>       0.00901578 </v>
   <v>       0.01803156 </v>
   <v>       0.00901578 </v>
   <v>       0.00601052 </v>
   <v>       0.01803156 </v>
   <v>       0.01803156 </v>
   <v>       0.01803156 </v>
   <v>       0.01803156 </v>
   <v>       0.01803156 </v>
   <v>       0.03606311 </v>
   <v>       0.03606311 </v>
   <v>       0.03606311 </v>
   <v>       0.01803156 </v>
   <v>       0.03606311 </v>
   <v>       0.03606311 </v>
   <v>       0.01803156 </v>
   <v>       0.03606311 </v>
   <v>       0.01803156 </v>
   <v>       0.00601052 </v>
   <v>       0.01803156 </v>
   <v>       0.01803156 </v>
   <v>       0.01803156 </v>
   <v>       0.01803156 </v>
   <v>       0.03606311 </v>
   <v>       0.03606311 </v>
   <v>       0.01803156 </v>
   <v>       0.03606311 </v>
   <v>       0.01803156 </v>
   <v>       0.00601052 </v>
   <v>       0.01803156 </v>
   <v>       0.01803156 </v>
   <v>       0.01803156 </v>
   <v>       0.03606311 </v>
   <v>       0.01803156 </v>
   <v>       0.00601052 </v>
   <v>       0.01803156 </v>
   <v>       0.01803156 </v>
   <v>       0.00601052 </v>
  </varray>
 </kpoints>
 <parameters>
  <separator name="general" >
   <i type="string" name="SYSTEM">unknown system</i>
   <i type="logical" name="LCOMPAT"> F  </i>
  </separator>
  <separator name="electronic" >
   <i type="string" name="PREC">normal</i>
   <i name="ENMAX">    400.00000000</i>
   <i name="ENAUG">    402.10800000</i>
   <i name="EDIFF">      0.00010000</i>
   <i type="int" name="IALGO">    38</i>
   <i type="int" name="IWAVPR">    10</i>
   <i type="int" name="NBANDS">    24</i>
   <i type="int" name="NBANDSLOW">    -1</i>
   <i type="int" name="NBANDSHIGH">    -1</i>
   <i name="NELECT">     12.00000000</i>
   <i type="int" name="TURBO">     0</i>
   <i type="int" name="IRESTART">     0</i>
   <i type="int" name="NREBOOT">     0</i>
   <i type="int" name="NMIN">     0</i>
   <i name="EREF">      0.00000000</i>
   <separator name="electronic smearing" >
    <i type="int" name="ISMEAR">     0</i>
    <i name="SIGMA">      0.05000000</i>
    <i name="KSPACING">      0.50000000</i>
    <i type="logical" name="KGAMMA"> T  </i>
    <i type="logical" name="KBLOWUP"> T  </i>
   </separator>
   <separator name="electronic projectors" >
    <i type="logical" name="LREAL"> F  </i>
    <v name="ROPT">      0.00000000</v>
    <i type="int" name="LMAXPAW">  -100</i>
    <i type="int" name="LMAXMIX">     2</i>
    <i type="logical" name="NLSPLINE"> F  </i>
   </separator>
   <separator name="electronic startup" >
    <i type="int" name="ISTART">     0</i>
    <i type="int" name="ICHARG">    11</i>
    <i type="int" name="INIWAV">     1</i>
   </separator>
   <separator name="electronic spin" >
    <i type="int" name="ISPIN">     1</i>
    <i type="logical" name="LNONCOLLINEAR"> F  </i>
    <v name="MAGMOM">      1.00000000      1.00000000</v>
    <i name="NUPDOWN">     -1.00000000</i>
    <i type="logical" name="LSORBIT"> F  </i>
    <v name="SAXIS">      0.00000000      0.00000000      1.00000000</v>
    <i type="logical" name="LSPIRAL"> F  </i>
    <v name="QSPIRAL">      0.00000000      0.00000000      0.00000000</v>
    <i type="logical" name="LZEROZ"> F  </i>
   </separator>
   <separator name="electronic exchange-correlation" >
    <i type="logical" name="LASPH"> F  </i>
    <i type="logical" name="LMETAGGA"> F  </i>
   </separator>
   <separator name="electronic convergence" >
    <i type="int" name="NELM">    60</i>
    <i type="int" name="NELMDL">    -5</i>
    <i type="int" name="NELMIN">     2</i>
    <i name="ENINI">    400.00000000</i>
    <separator name="electronic convergence detail" >
     <i type="logical" name="LDIAG"> T  </i>
     <i type="logical" name="LSUBROT"> F  </i>
     <i name="WEIMIN">      0.00000000</i>
     <i name="EBREAK">      0.00000104</i>
     <i name="DEPER">      0.30000000</i>
     <i type="int" name="NRMM">     4</i>
     <i name="TIME">      0.40000000</i>
    </separator>
   </separator>
   <separator name="electronic mixer" >
    <i name="AMIX">      0.40000000</i>
    <i name="BMIX">      1.00000000</i>
    <i name="AMIN">      0.10000000</i>
    <i name="AMIX_MAG">      1.60000000</i>
    <i name="BMIX_MAG">      1.00000000</i>
    <separator name="electronic mixer details" >
     <i type="int" name="IMIX">     4</i>
     <i type="logical" name="MIXFIRST"> F  </i>
     <i type="int" name="MAXMIX">   -45</i>
     <i name="WC">    100.00000000</i>
     <i type="int" name="INIMIX">     1</i>
     <i type="int" name="MIXPRE">     1</i>
     <i type="int" name="MREMOVE">     5</i>
    </separator>
   </separator>
   <separator name="electronic dipolcorrection" >
    <i type="logical" name="LDIPOL"> F  </i>
    <i type="logical" name="LMONO"> F  </i>
    <i type="int" name="IDIPOL">     0</i>
    <i name="EPSILON">      1.00000000</i>
    <v name="DIPOL">   -100.00000000   -100.00000000   -100.00000000</v>
    <i name="EFIELD">      0.00000000</i>
   </separator>
  </separator>
  <separator name="grids" >
   <i type="int" name="NGX">    14</i>
   <i type="int" name="NGY">    14</i>
   <i type="int" name="NGZ">    14</i>
   <i type="int" name="NGXF">    28</i>
   <i type="int" name="NGYF">    28</i>
   <i type="int" name="NGZF">    28</i>
   <i type="logical" name="ADDGRID"> F  </i>
  </separator>
  <separator name="ionic" >
   <i type="int" name="NSW">     0</i>
   <i type="int" name="IBRION">    -1</i>
   <i type="int" name="MDALGO">     0</i>
   <i type="int" name="ISIF">     2</i>
   <i name="PSTRESS">      0.00000000</i>
   <i name="EDIFFG">      0.00100000</i>
   <i type="int" name="NFREE">     0</i>
   <i name="POTIM">      0.50000000</i>
   <i name="SMASS">     -3.00000000</i>
   <i name="SCALEE">      1.00000000</i>
  </separator>
  <separator name="ionic md" >
   <i name="TEBEG">      0.00010000</i>
   <i name="TEEND">      0.00010000</i>
   <i type="int" name="NBLOCK">     1</i>
   <i type="int" name="KBLOCK">     1</i>
   <i type="int" name="NPACO">   256</i>
   <i name="APACO">     10.00000000</i>
  </separator>
  <separator name="symmetry" >
   <i type="int" name="ISYM">     2</i>
   <i name="SYMPREC">      0.00001000</i>
  </separator>
  <separator name="dos" >
   <i type="int" name="LORBIT">    11</i>
   <v name="RWIGS">     -1.00000000</v>
   <i type="int" name="NEDOS">   301</i>
   <i name="EMIN">     10.00000000</i>
   <i name="EMAX">    -10.00000000</i>
   <i name="EFERMI">      0.00000000</i>
  </separator>
  <separator name="writing" >
   <i type="int" name="NWRITE">     2</i>
   <i type="logical" name="LWAVE"> T  </i>
   <i type="logical" name="LDOWNSAMPLE"> F  </i>
   <i type="logical" name="LCHARG"> T  </i>
   <i type="logical" name="LPARD"> F  </i>
   <i type="logical" name="LVTOT"> F  </i>
   <i type="logical" name="LVHAR"> F  </i>
   <i type="logical" name="LELF"> F  </i>
   <i type="logical" name="LOPTICS"> F  </i>
   <v name="STM">      0.00000000      0.00000000      0.00000000      0.00000000      0.00000000      0.00000000      0.00000000</v>
  </separator>
  <separator name="performance" >
   <i type="int" name="NPAR">    24</i>
   <i type="int" name="NSIM">     4</i>
   <i type="int" name="NBLK">    -1</i>
   <i type="logical" name="LPLANE"> T  </i>
   <i type="logical" name="LSCALAPACK"> T  </i>
   <i type="logical" name="LSCAAWARE"> T  </i>
   <i type="logical" name="LSCALU"> F  </i>
   <i type="logical" name="LASYNC"> F  </i>
   <i type="logical" name="LORBITALREAL"> F  </i>
  </separator>
  <separator name="miscellaneous" >
   <i type="int" name="IDIOT">     3</i>
   <i type="int" name="PHON_NSTRUCT">    -1</i>
   <i type="logical" name="LMUSIC"> F  </i>
   <v name="POMASS">     51.99600000</v>
   <v name="DARWINR">      0.00000000</v>
   <v name="DARWINV">      1.00000000</v>
   <i type="logical" name="LCORR"> T  </i>
  </separator>
  <i type="logical" name="GGA_COMPAT"> T  </i>
  <i type="logical" name="LBERRY"> F  </i>
  <i type="int" name="ICORELEVEL">     0</i>
  <i type="logical" name="LDAU"> F  </i>
  <i type="int" name="I_CONSTRAINED_M">     0</i>
  <separator name="electronic exchange-correlation" >
   <i type="string" name="GGA">--</i>
   <i type="int" name="VOSKOWN">     0</i>
   <i type="logical" name="LHFCALC"> F  </i>
   <i type="string" name="PRECFOCK"></i>
   <i type="logical" name="LSYMGRAD"> F  </i>
   <i type="logical" name="LHFONE"> F  </i>
   <i type="logical" name="LRHFCALC"> F  </i>
   <i type="logical" name="LTHOMAS"> F  </i>
   <i type="logical" name="LMODELHF"> F  </i>
   <i type="logical" name="LFOCKACE"> F  </i>
   <i name="ENCUT4O">     -1.00000000</i>
   <i type="int" name="EXXOEP">     0</i>
   <i type="int" name="FOURORBIT">     0</i>
   <i name="AEXX">      0.00000000</i>
   <i name="HFALPHA">      0.00000000</i>
   <i name="MCALPHA">      0.00000000</i>
   <i name="ALDAX">      1.00000000</i>
   <i name="AGGAX">      1.00000000</i>
   <i name="ALDAC">      1.00000000</i>
   <i name="AGGAC">      1.00000000</i>
   <i type="int" name="NKREDX">     1</i>
   <i type="int" name="NKREDY">     1</i>
   <i type="int" name="NKREDZ">     1</i>
   <i type="logical" name="SHIFTRED"> F  </i>
   <i type="logical" name="ODDONLY"> F  </i>
   <i type="logical" name="EVENONLY"> F  </i>
   <i type="int" name="LMAXFOCK">     0</i>
   <i type="int" name="NMAXFOCKAE">     0</i>
   <i type="logical" name="LFOCKAEDFT"> F  </i>
   <i name="HFSCREEN">      0.00000000</i>
   <i name="HFSCREENC">      0.00000000</i>
   <i type="int" name="NBANDSGWLOW">     0</i>
  </separator>
  <separator name="vdW DFT" >
   <i type="logical" name="LUSE_VDW"> F  </i>
   <i name="Zab_VDW">     -0.84910000</i>
   <i name="PARAM1">      0.12340000</i>
   <i name="PARAM2">      1.00000000</i>
   <i name="PARAM3">      0.00000000</i>
  </separator>
  <separator name="model GW" >
   <i type="int" name="MODEL_GW">     0</i>
   <i name="MODEL_EPS0">      6.83948745</i>
   <i name="MODEL_ALPHA">      1.00000000</i>
  </separator>
  <separator name="linear response parameters" >
   <i type="logical" name="LEPSILON"> F  </i>
   <i type="logical" name="LRPA"> F  </i>
   <i type="logical" name="LNABLA"> F  </i>
   <i type="logical" name="LVEL"> F  </i>
   <i name="CSHIFT">      0.10000000</i>
   <i name="OMEGAMAX">     -1.00000000</i>
   <i name="DEG_THRESHOLD">      0.00200000</i>
   <i name="RTIME">     -0.10000000</i>
   <i name="WPLASMAI">      0.00000000</i>
   <v name="DFIELD">      0.00000000      0.00000000      0.00000000</v>
   <v name="WPLASMA">      0.00000000      0.00000000      0.00000000      0.00000000      0.00000000      0.00000000      0.00000000      0.00000000      0.00000000</v>
  </separator>
  <separator name="orbital magnetization" >
   <i type="logical" name="NUCIND"> F  </i>
   <v name="MAGPOS">      0.00000000      0.00000000      0.00000000</v>
   <i type="logical" name="LNICSALL"> T  </i>
   <i type="logical" name="ORBITALMAG"> F  </i>
   <i type="logical" name="LMAGBLOCH"> F  </i>
   <i type="logical" name="LCHIMAG"> F  </i>
   <i type="logical" name="LGAUGE"> T  </i>
   <i type="int" name="MAGATOM">     0</i>
   <v name="MAGDIPOL">      0.00000000      0.00000000      0.00000000</v>
   <v name="AVECCONST">      0.00000000      0.00000000      0.00000000</v>
  </separator>
  <separator name="response functions" >
   <i type="logical" name="LFINITE_TEMPERATURE"> F  </i>
   <i type="logical" name="LADDER"> F  </i>
   <i type="logical" name="LRPAFORCE"> F  </i>
   <i type="logical" name="LFXC"> F  </i>
   <i type="logical" name="LHARTREE"> T  </i>
   <i type="int" name="IBSE">     0</i>
   <v type="int" name="KPOINT">    -1     0     0     0</v>
   <i type="logical" name="LTCTC"> F  </i>
   <i type="logical" name="LTCTE"> F  </i>
   <i type="logical" name="LTETE"> F  </i>
   <i type="logical" name="LTRIPLET"> F  </i>
   <i type="logical" name="LFXCEPS"> F  </i>
   <i type="logical" name="LFXHEG"> F  </i>
   <i type="int" name="NATURALO">     2</i>
   <i type="logical" name="LHOLEGF"> F  </i>
   <i type="logical" name="L2ORDER"> F  </i>
   <i type="logical" name="LDMP1"> F  </i>
   <i type="logical" name="LMP2LT"> F  </i>
   <i type="logical" name="LSMP2LT"> F  </i>
   <i type="logical" name="LGWLF"> F  </i>
   <i name="ENCUTGW">     -2.00000000</i>
   <i name="ENCUTGWSOFT">     -2.00000000</i>
   <i name="ENCUTLF">     -1.00000000</i>
   <i type="logical" name="LESF_SPLINES"> F  </i>
   <i type="int" name="LMAXMP2">    -1</i>
   <i name="SCISSOR">      0.00000000</i>
   <i type="int" name="NOMEGA">     0</i>
   <i type="int" name="NOMEGAR">     0</i>
   <i type="int" name="NBANDSGW">    -1</i>
   <i type="int" name="NBANDSO">    -1</i>
   <i type="int" name="NBANDSV">    -1</i>
   <i type="int" name="NELMGW">     1</i>
   <i type="int" name="NELMHF">     1</i>
   <i type="int" name="DIM">     3</i>
   <i type="int" name="IESPILON">     4</i>
   <i type="int" name="ANTIRES">     0</i>
   <i name="OMEGAMAX">    -30.00000000</i>
   <i name="OMEGAMIN">    -30.00000000</i>
   <i name="OMEGATL">   -200.00000000</i>
   <i type="int" name="OMEGAGRID">     0</i>
   <i name="CSHIFT">     -0.10000000</i>
   <i type="logical" name="LSELFENERGY"> F  </i>
   <i type="logical" name="LSPECTRAL"> F  </i>
   <i type="logical" name="LSPECTRALGW"> F  </i>
   <i type="logical" name="LSINGLES"> F  </i>
   <i type="logical" name="LFERMIGW"> F  </i>
   <i type="logical" name="ODDONLYGW"> F  </i>
   <i type="logical" name="EVENONLYGW"> F  </i>
   <i type="int" name="NKREDLFX">     1</i>
   <i type="int" name="NKREDLFY">     1</i>
   <i type="int" name="NKREDLFZ">     1</i>
   <i type="int" name="MAXMEM">  2800</i>
   <i type="int" name="TELESCOPE">     0</i>
   <i type="int" name="NTAUPAR">    -1</i>
   <i type="int" name="NOMEGAPAR">    -1</i>
   <i name="DAMP_NEWTON">      0.80000001</i>
   <i name="LAMBDA">      1.00000000</i>
  </separator>
  <separator name="External order field" >
   <i name="OFIELD_KAPPA">      0.00000000</i>
   <v name="OFIELD_K">      0.00000000      0.00000000      0.00000000</v>
   <i name="OFIELD_Q6_NEAR">      0.00000000</i>
   <i name="OFIELD_Q6_FAR">      0.00000000</i>
   <i name="OFIELD_A">      0.00000000</i>
  </separator>
  <separator name="optional k-points parameters" >
   <i type="int" name="KPOINTS_OPT_MODE">     1</i>
   <i type="logical" name="LKPOINTS_OPT"> F  </i>
  </separator>
 </parameters>
 <atominfo>
  <atoms>       2 </atoms>
  <types>       1 </types>
  <array name="atoms" >
   <dimension dim="1">ion</dimension>
   <field type="string">element</field>
   <field type="int">atomtype</field>
   <set>
    <rc><c>Cr</c><c>   1</c></rc>
    <rc><c>Cr</c><c>   1</c></rc>
   </set>
  </array>
  <array name="atomtypes" >
   <dimension dim="1">type</dimension>
   <field type="int">atomspertype</field>
   <field type="string">element</field>
   <field>mass</field>
   <field>valence</field>
   <field type="string">pseudopotential</field>
   <set>
    <rc><c>   2</c><c>Cr</c><c>     51.99600000</c><c>      6.00000000</c><c>  PAW_PBE Cr 06Sep2000                  </c></rc>
   </set>
  </array>
 </atominfo>
 <structure name="initialpos" >
  <crystal>
   <varray name="basis" >
    <v>       2.83552905       0.00000000       0.00000000 </v>
    <v>       0.00000000       2.83552905       0.00000000 </v>
    <v>       0.00000000       0.00000000       2.83552905 </v>
   </varray>
   <i name="volume">     22.79829149 </i>
   <varray name="rec_basis" >
    <v>       0.35266787       0.00000000       0.00000000 </v>
    <v>       0.00000000       0.35266787       0.00000000 </v>
    <v>       0.00000000       0.00000000       0.35266787 </v>
   </varray>
  </crystal>
  <varray name="positions" >
   <v>       0.00000000       0.00000000       0.00000000 </v>
   <v>       0.50000000       0.50000000       0.50000000 </v>
  </varray>
 </structure>
 <calculation>
  <scstep>
   <time name="dav">    0.12    0.14</time>
   <time name="total">    0.12    0.16</time>
   <energy>
    <i name="alphaZ">     72.51454648 </i>
    <i name="ewald">   -665.32584042 </i>
    <i name="hartreedc">    -43.17281144 </i>
    <i name="XCdc">    -38.76972014 </i>
    <i name="pawpsdc">    831.42112927 </i>
    <i name="pawaedc">   -792.25429705 </i>
    <i name="eentropy">     -0.00180630 </i>
    <i name="bandstr">     75.05799939 </i>
    <i name="atom">    553.76826754 </i>
    <i name="e_fr_energy">     -6.76253269 </i>
    <i name="e_wo_entrp">     -6.76072638 </i>
    <i name="e_0_energy">     -6.76162953 </i>
   </energy>
  </scstep>
  <scstep>
   <time name="dav">    0.17    0.17</time>
   <time name="total">    0.17    0.17</time>
   <energy>
    <i name="e_fr_energy">    -18.96263510 </i>
    <i name="e_wo_entrp">    -18.96060427 </i>
    <i name="e_0_energy">    -18.96161969 </i>
   </energy>
  </scstep>
  <scstep>
   <time name="dav">    0.16    0.16</time>
   <time name="total">    0.16    0.16</time>
   <energy>
    <i name="e_fr_energy">    -19.00540555 </i>
    <i name="e_wo_entrp">    -19.00342647 </i>
    <i name="e_0_energy">    -19.00441601 </i>
   </energy>
  </scstep>
  <scstep>
   <time name="dav">    0.23    0.23</time>
   <time name="total">    0.23    0.23</time>
   <energy>
    <i name="e_fr_energy">    -19.00553852 </i>
    <i name="e_wo_entrp">    -19.00355987 </i>
    <i name="e_0_energy">    -19.00454919 </i>
   </energy>
  </scstep>
  <scstep>
   <time name="dav">    0.18    0.18</time>
   <time name="total">    0.18    0.18</time>
   <energy>
    <i name="e_fr_energy">    -19.00553861 </i>
    <i name="e_wo_entrp">    -19.00355996 </i>
    <i name="e_0_energy">    -19.00454929 </i>
   </energy>
  </scstep>
  <scstep>
   <time name="dav">    0.17    0.17</time>
   <time name="total">    0.17    0.17</time>
   <energy>
    <i name="alphaZ">     72.51454648 </i>
    <i name="ewald">   -665.32584042 </i>
    <i name="hartreedc">    -43.17281144 </i>
    <i name="XCdc">    -38.76972014 </i>
    <i name="pawpsdc">    831.42112927 </i>
    <i name="pawaedc">   -792.25429705 </i>
    <i name="eentropy">     -0.00197865 </i>
    <i name="bandstr">     62.81516580 </i>
    <i name="atom">    553.76826754 </i>
    <i name="e_fr_energy">    -19.00553861 </i>
    <i name="e_wo_entrp">    -19.00355996 </i>
    <i name="e_0_energy">    -19.00454929 </i>
   </energy>
  </scstep>
  <structure>
   <crystal>
    <varray name="basis" >
     <v>       2.83552905       0.00000000       0.00000000 </v>
     <v>       0.00000000       2.83552905       0.00000000 </v>
     <v>       0.00000000       0.00000000       2.83552905 </v>
    </varray>
    <i name="volume">     22.79829149 </i>
    <varray name="rec_basis" >
     <v>       0.35266787       0.00000000       0.00000000 </v>
     <v>       0.00000000       0.35266787       0.00000000 </v>
     <v>       0.00000000       0.00000000       0.35266787 </v>
    </varray>
   </crystal>
   <varray name="positions" >
    <v>       0.00000000       0.00000000       0.00000000 </v>
    <v>       0.50000000       0.50000000       0.50000000 </v>
   </varray>
  </structure>
  <varray name="forces" >
   <v>       0.00000000       0.00000000       0.00000000 </v>
   <v>      -0.00000000      -0.00000000      -0.00000000 </v>
  </varray>
  <varray name="stress" >
   <v>      10.81854636       0.00000000      -0.00000000 </v>
   <v>       0.00000000      10.81854636      -0.00000000 </v>
   <v>       0.00000000       0.00000000      10.81854636 </v>
  </varray>
  <energy>
   <i name="e_fr_energy">    -19.00553861 </i>
   <i name="e_wo_entrp">    -19.00355996 </i>
   <i name="e_0_energy">    -19.00454929 </i>
  </energy>
  <time name="totalsc">    1.11    1.20</time>
  <eigenvalues>
   <array>
    <dimension dim="1">band</dimension>
    <dimension dim="2">kpoint</dimension>
    <dimension dim="3">spin</dimension>
    <field>eigene</field>
    <field>occ</field>
    <set>
     <set comment="spin 1">
      <set comment="kpoint 1">
       <r>   -0.1209    1.0000 </r>
       <r>    3.3718    1.0000 </r>
       <r>    3.3718    1.0000 </r>
       <r>    6.7776    1.0000 </r>
       <r>    6.7776    1.0000 </r>
       <r>    6.7776    1.0000 </r>
       <r>    8.8992    0.0000 </r>
       <r>    8.8992    0.0000 </r>
       <r>   10.1719    0.0000 </r>
       <r>   10.1719    0.0000 </r>
       <r>   10.1719    0.0000 </r>
       <r>   18.4861    0.0000 </r>
       <r>   18.4861    0.0000 </r>
       <r>   18.4861    0.0000 </r>
       <r>   25.1214    0.0000 </r>
       <r>   25.1214    0.0000 </r>
       <r>   30.8496    0.0000 </r>
       <r>   30.8496    0.0000 </r>
       <r>   30.8496    0.0000 </r>
       <r>   31.6684    0.0000 </r>
       <r>   37.5447    0.0000 </r>
       <r>   37.5447    0.0000 </r>
       <r>   41.5301    0.0000 </r>
       <r>   41.5301    0.0000 </r>
      </set>
      <set comment="kpoint 2">
       <r>    0.0622    1.0000 </r>
       <r>    3.4675    1.0000 </r>
       <r>    3.4778    1.0000 </r>
       <r>    6.7701    1.0000 </r>
       <r>    6.7701    1.0000 </r>
       <r>    6.8402    1.0000 </r>
       <r>    8.7704    0.0000 </r>
       <r>    8.9485    0.0000 </r>
       <r>    9.9386    0.0000 </r>
       <r>    9.9386    0.0000 </r>
       <r>   10.0963    0.0000 </r>
       <r>   17.6148    0.0000 </r>
       <r>   18.8987    0.0000 </r>
       <r>   18.8987    0.0000 </r>
       <r>   25.1364    0.0000 </r>
       <r>   25.6810    0.0000 </r>
       <r>   30.2026    0.0000 </r>
       <r>   30.9263    0.0000 </r>
       <r>   30.9263    0.0000 </r>
       <r>   32.1507    0.0000 </r>
       <r>   36.5430    0.0000 </r>
       <r>   38.6487    0.0000 </r>
       <r>   40.2161    0.0000 </r>
       <r>   40.2161    0.0000 </r>
      </set>
      <set comment="kpoint 3">
       <r>    0.5932    1.0000 </r>
       <r>    3.7503    1.0000 </r>
       <r>    3.7577    1.0000 </r>
       <r>    6.7617    1.0000 </r>
       <r>    6.7617    1.0000 </r>
       <r>    7.0240    1.0000 </r>
       <r>    8.3980    0.0000 </r>
       <r>    9.0884    0.0000 </r>
       <r>    9.3664    0.0000 </r>
       <r>    9.3664    0.0000 </r>
       <r>    9.8774    0.0000 </r>
       <r>   15.7763    0.0000 </r>
       <r>   20.0042    0.0000 </r>
       <r>   20.0042    0.0000 </r>
       <r>   25.1866    0.0000 </r>
       <r>   26.4847    0.0000 </r>
       <r>   28.9659    0.0000 </r>
       <r>   30.9688    0.0000 </r>
       <r>   30.9688    0.0000 </r>
       <r>   33.7472    0.0000 </r>
       <r>   34.4541    0.0000 </r>
       <r>   38.7700    0.0000 </r>
       <r>   38.7700    0.0000 </r>
       <r>   41.2403    0.0000 </r>
      </set>
      <set comment="kpoint 4">
       <r>    1.4137    1.0000 </r>
       <r>    4.0931    1.0000 </r>
       <r>    4.2066    1.0000 </r>
       <r>    6.7893    1.0000 </r>
       <r>    6.7893    1.0000 </r>
       <r>    7.3180    1.0000 </r>
       <r>    7.8223    0.0003 </r>
       <r>    8.6796    0.0000 </r>
       <r>    8.6796    0.0000 </r>
       <r>    9.3003    0.0000 </r>
       <r>    9.5375    0.0000 </r>
       <r>   13.7968    0.0000 </r>
       <r>   21.5635    0.0000 </r>
       <r>   21.5635    0.0000 </r>
       <r>   25.2876    0.0000 </r>
       <r>   26.9118    0.0000 </r>
       <r>   27.8004    0.0000 </r>
       <r>   30.4689    0.0000 </r>
       <r>   30.4689    0.0000 </r>
       <r>   32.2133    0.0000 </r>
       <r>   36.3990    0.0000 </r>
       <r>   38.2940    0.0000 </r>
       <r>   38.2940    0.0000 </r>
       <r>   41.6552    0.0000 </r>
      </set>
      <set comment="kpoint 5">
       <r>    2.4113    1.0000 </r>
       <r>    4.2807    1.0000 </r>
       <r>    4.8126    1.0000 </r>
       <r>    6.8985    1.0000 </r>
       <r>    6.8985    1.0000 </r>
       <r>    7.1046    1.0000 </r>
       <r>    7.7032    0.4641 </r>
       <r>    8.0336    0.0000 </r>
       <r>    8.0336    0.0000 </r>
       <r>    9.1102    0.0000 </r>
       <r>    9.5829    0.0000 </r>
       <r>   12.0540    0.0000 </r>
       <r>   23.3926    0.0000 </r>
       <r>   23.3926    0.0000 </r>
       <r>   25.4659    0.0000 </r>
       <r>   26.8804    0.0000 </r>
       <r>   27.2153    0.0000 </r>
       <r>   29.1578    0.0000 </r>
       <r>   29.1578    0.0000 </r>
       <r>   30.2347    0.0000 </r>
       <r>   39.0582    0.0000 </r>
       <r>   39.0582    0.0000 </r>
       <r>   39.6948    0.0000 </r>
       <r>   41.8019    0.0000 </r>
      </set>
      <set comment="kpoint 6">
       <r>    3.3914    1.0000 </r>
       <r>    4.0778    1.0000 </r>
       <r>    5.5327    1.0000 </r>
       <r>    6.3174    1.0000 </r>
       <r>    7.1294    1.0000 </r>
       <r>    7.1294    1.0000 </r>
       <r>    7.5071    1.0000 </r>
       <r>    7.5071    1.0000 </r>
       <r>    8.1533    0.0000 </r>
       <r>    8.6351    0.0000 </r>
       <r>   10.0100    0.0000 </r>
       <r>   10.7744    0.0000 </r>
       <r>   25.3612    0.0000 </r>
       <r>   25.3612    0.0000 </r>
       <r>   25.7590    0.0000 </r>
       <r>   26.2135    0.0000 </r>
       <r>   27.3447    0.0000 </r>
       <r>   27.3447    0.0000 </r>
       <r>   27.7438    0.0000 </r>
       <r>   28.7233    0.0000 </r>
       <r>   40.7052    0.0000 </r>
       <r>   40.7052    0.0000 </r>
       <r>   42.0468    0.0000 </r>
       <r>   42.4196    0.0000 </r>
      </set>
      <set comment="kpoint 7">
       <r>    0.2415    1.0000 </r>
       <r>    3.5608    1.0000 </r>
       <r>    3.5826    1.0000 </r>
       <r>    6.6390    1.0000 </r>
       <r>    6.7509    1.0000 </r>
       <r>    7.0260    1.0000 </r>
       <r>    8.7533    0.0000 </r>
       <r>    8.9104    0.0000 </r>
       <r>    9.5619    0.0000 </r>
       <r>    9.7101    0.0000 </r>
       <r>   10.2028    0.0000 </r>
       <r>   17.7239    0.0000 </r>
       <r>   18.2672    0.0000 </r>
       <r>   19.2736    0.0000 </r>
       <r>   25.4106    0.0000 </r>
       <r>   26.0845    0.0000 </r>
       <r>   29.7767    0.0000 </r>
       <r>   30.6312    0.0000 </r>
       <r>   31.0215    0.0000 </r>
       <r>   32.5842    0.0000 </r>
       <r>   36.8627    0.0000 </r>
       <r>   38.5314    0.0000 </r>
       <r>   39.1218    0.0000 </r>
       <r>   39.5270    0.0000 </r>
      </set>
      <set comment="kpoint 8">
       <r>    0.7601    1.0000 </r>
       <r>    3.8178    1.0000 </r>
       <r>    3.8752    1.0000 </r>
       <r>    6.5334    1.0000 </r>
       <r>    6.7096    1.0000 </r>
       <r>    7.3056    1.0000 </r>
       <r>    8.4704    0.0000 </r>
       <r>    8.9344    0.0000 </r>
       <r>    9.0290    0.0000 </r>
       <r>    9.1600    0.0000 </r>
       <r>   10.1204    0.0000 </r>
       <r>   16.0295    0.0000 </r>
       <r>   19.0822    0.0000 </r>
       <r>   20.3012    0.0000 </r>
       <r>   25.5545    0.0000 </r>
       <r>   27.0305    0.0000 </r>
       <r>   28.5145    0.0000 </r>
       <r>   30.3209    0.0000 </r>
       <r>   31.1196    0.0000 </r>
       <r>   34.0540    0.0000 </r>
       <r>   35.5764    0.0000 </r>
       <r>   37.7043    0.0000 </r>
       <r>   38.2016    0.0000 </r>
       <r>   40.8723    0.0000 </r>
      </set>
      <set comment="kpoint 9">
       <r>    1.5566    1.0000 </r>
       <r>    4.1576    1.0000 </r>
       <r>    4.2968    1.0000 </r>
       <r>    6.5004    1.0000 </r>
       <r>    6.6696    1.0000 </r>
       <r>    7.6557    0.8952 </r>
       <r>    8.0070    0.0000 </r>
       <r>    8.2522    0.0000 </r>
       <r>    8.5310    0.0000 </r>
       <r>    9.2497    0.0000 </r>
       <r>    9.8537    0.0000 </r>
       <r>   14.0174    0.0000 </r>
       <r>   20.4303    0.0000 </r>
       <r>   21.7882    0.0000 </r>
       <r>   25.7070    0.0000 </r>
       <r>   27.1855    0.0000 </r>
       <r>   27.6968    0.0000 </r>
       <r>   29.5102    0.0000 </r>
       <r>   30.6604    0.0000 </r>
       <r>   33.8520    0.0000 </r>
       <r>   36.5720    0.0000 </r>
       <r>   37.1090    0.0000 </r>
       <r>   37.8472    0.0000 </r>
       <r>   42.6280    0.0000 </r>
      </set>
      <set comment="kpoint 10">
       <r>    2.5156    1.0000 </r>
       <r>    4.3338    1.0000 </r>
       <r>    4.8534    1.0000 </r>
       <r>    6.5632    1.0000 </r>
       <r>    6.5702    1.0000 </r>
       <r>    7.5610    1.0000 </r>
       <r>    7.6274    0.9800 </r>
       <r>    8.0033    0.0000 </r>
       <r>    8.0701    0.0000 </r>
       <r>    9.4653    0.0000 </r>
       <r>    9.5425    0.0000 </r>
       <r>   12.2123    0.0000 </r>
       <r>   21.9215    0.0000 </r>
       <r>   23.5659    0.0000 </r>
       <r>   25.9567    0.0000 </r>
       <r>   25.9607    0.0000 </r>
       <r>   28.2757    0.0000 </r>
       <r>   28.2930    0.0000 </r>
       <r>   29.3248    0.0000 </r>
       <r>   32.0945    0.0000 </r>
       <r>   37.6607    0.0000 </r>
       <r>   38.5909    0.0000 </r>
       <r>   39.6909    0.0000 </r>
       <r>   41.4756    0.0000 </r>
      </set>
      <set comment="kpoint 11">
       <r>    3.4495    1.0000 </r>
       <r>    4.1142    1.0000 </r>
       <r>    5.5021    1.0000 </r>
       <r>    6.1447    1.0000 </r>
       <r>    6.7722    1.0000 </r>
       <r>    7.1249    1.0000 </r>
       <r>    7.4590    1.0000 </r>
       <r>    7.6507    0.9186 </r>
       <r>    8.5310    0.0000 </r>
       <r>    9.0089    0.0000 </r>
       <r>   10.0001    0.0000 </r>
       <r>   10.8413    0.0000 </r>
       <r>   23.3887    0.0000 </r>
       <r>   24.7353    0.0000 </r>
       <r>   25.5064    0.0000 </r>
       <r>   26.3938    0.0000 </r>
       <r>   27.1487    0.0000 </r>
       <r>   27.4871    0.0000 </r>
       <r>   29.1719    0.0000 </r>
       <r>   30.4683    0.0000 </r>
       <r>   38.8685    0.0000 </r>
       <r>   40.0658    0.0000 </r>
       <r>   40.2204    0.0000 </r>
       <r>   41.6183    0.0000 </r>
      </set>
      <set comment="kpoint 12">
       <r>    1.2372    1.0000 </r>
       <r>    3.9935    1.0000 </r>
       <r>    4.2043    1.0000 </r>
       <r>    6.2812    1.0000 </r>
       <r>    6.6030    1.0000 </r>
       <r>    7.7256    0.2348 </r>
       <r>    8.2452    0.0000 </r>
       <r>    8.5495    0.0000 </r>
       <r>    8.6903    0.0000 </r>
       <r>    8.9534    0.0000 </r>
       <r>   10.2862    0.0000 </r>
       <r>   16.0457    0.0000 </r>
       <r>   17.9481    0.0000 </r>
       <r>   21.1515    0.0000 </r>
       <r>   25.7595    0.0000 </r>
       <r>   27.2042    0.0000 </r>
       <r>   28.4102    0.0000 </r>
       <r>   29.5388    0.0000 </r>
       <r>   31.4246    0.0000 </r>
       <r>   35.1370    0.0000 </r>
       <r>   36.0273    0.0000 </r>
       <r>   36.9586    0.0000 </r>
       <r>   37.3349    0.0000 </r>
       <r>   40.7450    0.0000 </r>
      </set>
      <set comment="kpoint 13">
       <r>    1.9505    1.0000 </r>
       <r>    4.2029    1.0000 </r>
       <r>    4.6624    1.0000 </r>
       <r>    6.1221    1.0000 </r>
       <r>    6.5109    1.0000 </r>
       <r>    7.5570    1.0000 </r>
       <r>    8.1850    0.0000 </r>
       <r>    8.2312    0.0000 </r>
       <r>    8.3554    0.0000 </r>
       <r>    9.1194    0.0000 </r>
       <r>   10.2262    0.0000 </r>
       <r>   14.4059    0.0000 </r>
       <r>   18.6459    0.0000 </r>
       <r>   22.4532    0.0000 </r>
       <r>   25.6367    0.0000 </r>
       <r>   25.8379    0.0000 </r>
       <r>   28.6421    0.0000 </r>
       <r>   29.6410    0.0000 </r>
       <r>   31.2024    0.0000 </r>
       <r>   35.0708    0.0000 </r>
       <r>   36.2372    0.0000 </r>
       <r>   37.1492    0.0000 </r>
       <r>   37.2249    0.0000 </r>
       <r>   40.9192    0.0000 </r>
      </set>
      <set comment="kpoint 14">
       <r>    2.7694    1.0000 </r>
       <r>    4.2793    1.0000 </r>
       <r>    5.1710    1.0000 </r>
       <r>    6.0912    1.0000 </r>
       <r>    6.4050    1.0000 </r>
       <r>    6.9600    1.0000 </r>
       <r>    7.9861    0.0000 </r>
       <r>    8.1101    0.0000 </r>
       <r>    8.6665    0.0000 </r>
       <r>    9.4244    0.0000 </r>
       <r>    9.9780    0.0000 </r>
       <r>   12.5402    0.0000 </r>
       <r>   19.8780    0.0000 </r>
       <r>   24.0859    0.0000 </r>
       <r>   24.0998    0.0000 </r>
       <r>   25.9595    0.0000 </r>
       <r>   27.6346    0.0000 </r>
       <r>   29.8071    0.0000 </r>
       <r>   30.6678    0.0000 </r>
       <r>   34.6925    0.0000 </r>
       <r>   35.5240    0.0000 </r>
       <r>   37.8380    0.0000 </r>
       <r>   39.4650    0.0000 </r>
       <r>   39.5141    0.0000 </r>
      </set>
      <set comment="kpoint 15">
       <r>    3.5219    1.0000 </r>
       <r>    4.0559    1.0000 </r>
       <r>    5.6882    1.0000 </r>
       <r>    6.1392    1.0000 </r>
       <r>    6.2140    1.0000 </r>
       <r>    6.5045    1.0000 </r>
       <r>    7.9664    0.0000 </r>
       <r>    8.0081    0.0000 </r>
       <r>    9.1491    0.0000 </r>
       <r>    9.6008    0.0000 </r>
       <r>    9.9590    0.0000 </r>
       <r>   10.9885    0.0000 </r>
       <r>   21.2222    0.0000 </r>
       <r>   22.6286    0.0000 </r>
       <r>   25.9381    0.0000 </r>
       <r>   26.2419    0.0000 </r>
       <r>   26.7904    0.0000 </r>
       <r>   27.9003    0.0000 </r>
       <r>   31.7863    0.0000 </r>
       <r>   33.1388    0.0000 </r>
       <r>   36.6787    0.0000 </r>
       <r>   38.0415    0.0000 </r>
       <r>   38.9094    0.0000 </r>
       <r>   40.0085    0.0000 </r>
      </set>
      <set comment="kpoint 16">
       <r>    2.4901    1.0000 </r>
       <r>    4.1789    1.0000 </r>
       <r>    5.2074    1.0000 </r>
       <r>    5.8404    1.0000 </r>
       <r>    6.5104    1.0000 </r>
       <r>    6.8903    1.0000 </r>
       <r>    8.0363    0.0000 </r>
       <r>    8.5922    0.0000 </r>
       <r>    8.7308    0.0000 </r>
       <r>    9.0393    0.0000 </r>
       <r>   10.3964    0.0000 </r>
       <r>   14.0644    0.0000 </r>
       <r>   17.7935    0.0000 </r>
       <r>   23.5259    0.0000 </r>
       <r>   23.8880    0.0000 </r>
       <r>   25.7944    0.0000 </r>
       <r>   27.8033    0.0000 </r>
       <r>   31.5904    0.0000 </r>
       <r>   31.8435    0.0000 </r>
       <r>   33.1419    0.0000 </r>
       <r>   36.4615    0.0000 </r>
       <r>   38.1439    0.0000 </r>
       <r>   38.7635    0.0000 </r>
       <r>   39.2058    0.0000 </r>
      </set>
      <set comment="kpoint 17">
       <r>    3.0266    1.0000 </r>
       <r>    4.0424    1.0000 </r>
       <r>    5.7012    1.0000 </r>
       <r>    5.7998    1.0000 </r>
       <r>    6.3382    1.0000 </r>
       <r>    6.6582    1.0000 </r>
       <r>    8.0855    0.0000 </r>
       <r>    8.5580    0.0000 </r>
       <r>    9.2511    0.0000 </r>
       <r>    9.2552    0.0000 </r>
       <r>   10.3447    0.0000 </r>
       <r>   12.6380    0.0000 </r>
       <r>   18.3197    0.0000 </r>
       <r>   22.2272    0.0000 </r>
       <r>   24.9470    0.0000 </r>
       <r>   25.7705    0.0000 </r>
       <r>   26.9555    0.0000 </r>
       <r>   30.5303    0.0000 </r>
       <r>   33.1819    0.0000 </r>
       <r>   33.4419    0.0000 </r>
       <r>   36.2937    0.0000 </r>
       <r>   37.5952    0.0000 </r>
       <r>   38.6176    0.0000 </r>
       <r>   38.8671    0.0000 </r>
      </set>
      <set comment="kpoint 18">
       <r>    3.4618    1.0000 </r>
       <r>    3.7961    1.0000 </r>
       <r>    5.7316    1.0000 </r>
       <r>    5.9449    1.0000 </r>
       <r>    6.3225    1.0000 </r>
       <r>    6.6536    1.0000 </r>
       <r>    8.3061    0.0000 </r>
       <r>    8.4886    0.0000 </r>
       <r>    9.7260    0.0000 </r>
       <r>    9.8477    0.0000 </r>
       <r>   10.1048    0.0000 </r>
       <r>   11.0530    0.0000 </r>
       <r>   19.4029    0.0000 </r>
       <r>   20.7234    0.0000 </r>
       <r>   25.8978    0.0000 </r>
       <r>   26.2845    0.0000 </r>
       <r>   26.6419    0.0000 </r>
       <r>   28.5346    0.0000 </r>
       <r>   34.5333    0.0000 </r>
       <r>   34.6857    0.0000 </r>
       <r>   35.7023    0.0000 </r>
       <r>   36.0884    0.0000 </r>
       <r>   38.2453    0.0000 </r>
       <r>   38.6168    0.0000 </r>
      </set>
      <set comment="kpoint 19">
       <r>    3.1967    1.0000 </r>
       <r>    3.7578    1.0000 </r>
       <r>    5.4595    1.0000 </r>
       <r>    5.8464    1.0000 </r>
       <r>    6.5471    1.0000 </r>
       <r>    7.2762    1.0000 </r>
       <r>    8.3146    0.0000 </r>
       <r>    8.7885    0.0000 </r>
       <r>    9.1505    0.0000 </r>
       <r>    9.7748    0.0000 </r>
       <r>   10.4990    0.0000 </r>
       <r>   12.0184    0.0000 </r>
       <r>   17.7665    0.0000 </r>
       <r>   20.5611    0.0000 </r>
       <r>   25.5832    0.0000 </r>
       <r>   26.1267    0.0000 </r>
       <r>   26.2731    0.0000 </r>
       <r>   30.8142    0.0000 </r>
       <r>   32.1430    0.0000 </r>
       <r>   35.4692    0.0000 </r>
       <r>   35.9023    0.0000 </r>
       <r>   36.3509    0.0000 </r>
       <r>   38.0138    0.0000 </r>
       <r>   41.4538    0.0000 </r>
      </set>
      <set comment="kpoint 20">
       <r>    3.3315    1.0000 </r>
       <r>    3.5101    1.0000 </r>
       <r>    5.3964    1.0000 </r>
       <r>    5.5260    1.0000 </r>
       <r>    7.2269    1.0000 </r>
       <r>    7.6057    0.9962 </r>
       <r>    8.5993    0.0000 </r>
       <r>    8.7972    0.0000 </r>
       <r>    9.5923    0.0000 </r>
       <r>   10.1822    0.0000 </r>
       <r>   10.4364    0.0000 </r>
       <r>   10.7866    0.0000 </r>
       <r>   18.1888    0.0000 </r>
       <r>   19.1868    0.0000 </r>
       <r>   25.5426    0.0000 </r>
       <r>   25.7656    0.0000 </r>
       <r>   27.5820    0.0000 </r>
       <r>   29.2444    0.0000 </r>
       <r>   33.0391    0.0000 </r>
       <r>   34.3797    0.0000 </r>
       <r>   36.5403    0.0000 </r>
       <r>   36.8419    0.0000 </r>
       <r>   37.9325    0.0000 </r>
       <r>   39.6284    0.0000 </r>
      </set>
      <set comment="kpoint 21">
       <r>    3.2619    1.0000 </r>
       <r>    3.3184    1.0000 </r>
       <r>    5.2427    1.0000 </r>
       <r>    5.2862    1.0000 </r>
       <r>    8.1620    0.0000 </r>
       <r>    8.5914    0.0000 </r>
       <r>    8.8071    0.0000 </r>
       <r>    8.9320    0.0000 </r>
       <r>    9.2328    0.0000 </r>
       <r>   10.0373    0.0000 </r>
       <r>   10.4708    0.0000 </r>
       <r>   10.5605    0.0000 </r>
       <r>   17.7819    0.0000 </r>
       <r>   18.1604    0.0000 </r>
       <r>   25.3392    0.0000 </r>
       <r>   25.4107    0.0000 </r>
       <r>   28.6578    0.0000 </r>
       <r>   29.4683    0.0000 </r>
       <r>   32.2906    0.0000 </r>
       <r>   32.9887    0.0000 </r>
       <r>   36.5338    0.0000 </r>
       <r>   36.7557    0.0000 </r>
       <r>   39.6496    0.0000 </r>
       <r>   40.8675    0.0000 </r>
      </set>
      <set comment="kpoint 22">
       <r>    0.4177    1.0000 </r>
       <r>    3.6694    1.0000 </r>
       <r>    3.6694    1.0000 </r>
       <r>    6.6145    1.0000 </r>
       <r>    6.6145    1.0000 </r>
       <r>    7.2154    1.0000 </r>
       <r>    8.8131    0.0000 </r>
       <r>    8.8131    0.0000 </r>
       <r>    9.0653    0.0000 </r>
       <r>    9.9726    0.0000 </r>
       <r>    9.9726    0.0000 </r>
       <r>   18.1028    0.0000 </r>
       <r>   18.1028    0.0000 </r>
       <r>   18.8162    0.0000 </r>
       <r>   26.1352    0.0000 </r>
       <r>   26.1352    0.0000 </r>
       <r>   29.7421    0.0000 </r>
       <r>   29.7421    0.0000 </r>
       <r>   31.3115    0.0000 </r>
       <r>   32.9724    0.0000 </r>
       <r>   37.3758    0.0000 </r>
       <r>   37.9604    0.0000 </r>
       <r>   37.9604    0.0000 </r>
       <r>   41.0265    0.0000 </r>
      </set>
      <set comment="kpoint 23">
       <r>    0.9260    1.0000 </r>
       <r>    3.9242    1.0000 </r>
       <r>    3.9538    1.0000 </r>
       <r>    6.4610    1.0000 </r>
       <r>    6.5501    1.0000 </r>
       <r>    7.5455    1.0000 </r>
       <r>    8.3871    0.0000 </r>
       <r>    8.5364    0.0000 </r>
       <r>    8.9754    0.0000 </r>
       <r>    9.4152    0.0000 </r>
       <r>   10.0313    0.0000 </r>
       <r>   16.3011    0.0000 </r>
       <r>   19.0935    0.0000 </r>
       <r>   19.5634    0.0000 </r>
       <r>   26.3016    0.0000 </r>
       <r>   27.2863    0.0000 </r>
       <r>   28.3020    0.0000 </r>
       <r>   29.4298    0.0000 </r>
       <r>   31.5512    0.0000 </r>
       <r>   34.3121    0.0000 </r>
       <r>   35.8631    0.0000 </r>
       <r>   36.5150    0.0000 </r>
       <r>   39.5531    0.0000 </r>
       <r>   40.5789    0.0000 </r>
      </set>
      <set comment="kpoint 24">
       <r>    1.7023    1.0000 </r>
       <r>    4.2824    1.0000 </r>
       <r>    4.3293    1.0000 </r>
       <r>    6.4023    1.0000 </r>
       <r>    6.4580    1.0000 </r>
       <r>    7.7364    0.1515 </r>
       <r>    7.9420    0.0000 </r>
       <r>    8.1362    0.0000 </r>
       <r>    8.7621    0.0000 </r>
       <r>    9.2070    0.0000 </r>
       <r>    9.8682    0.0000 </r>
       <r>   14.2603    0.0000 </r>
       <r>   20.4245    0.0000 </r>
       <r>   20.7920    0.0000 </r>
       <r>   26.6290    0.0000 </r>
       <r>   26.9009    0.0000 </r>
       <r>   28.0693    0.0000 </r>
       <r>   28.4579    0.0000 </r>
       <r>   31.3778    0.0000 </r>
       <r>   34.3815    0.0000 </r>
       <r>   35.7201    0.0000 </r>
       <r>   36.6415    0.0000 </r>
       <r>   39.0079    0.0000 </r>
       <r>   41.7094    0.0000 </r>
      </set>
      <set comment="kpoint 25">
       <r>    2.6284    1.0000 </r>
       <r>    4.4291    1.0000 </r>
       <r>    4.8512    1.0000 </r>
       <r>    6.3018    1.0000 </r>
       <r>    6.4760    1.0000 </r>
       <r>    7.2423    1.0000 </r>
       <r>    7.7445    0.1042 </r>
       <r>    8.1756    0.0000 </r>
       <r>    8.3846    0.0000 </r>
       <r>    9.5122    0.0000 </r>
       <r>    9.5619    0.0000 </r>
       <r>   12.4136    0.0000 </r>
       <r>   21.8620    0.0000 </r>
       <r>   22.2299    0.0000 </r>
       <r>   25.6457    0.0000 </r>
       <r>   26.9555    0.0000 </r>
       <r>   27.1948    0.0000 </r>
       <r>   28.7094    0.0000 </r>
       <r>   30.5128    0.0000 </r>
       <r>   32.5467    0.0000 </r>
       <r>   36.2377    0.0000 </r>
       <r>   38.9942    0.0000 </r>
       <r>   39.6268    0.0000 </r>
       <r>   41.0821    0.0000 </r>
      </set>
      <set comment="kpoint 26">
       <r>    3.5240    1.0000 </r>
       <r>    4.1784    1.0000 </r>
       <r>    5.4310    1.0000 </r>
       <r>    5.9620    1.0000 </r>
       <r>    6.6743    1.0000 </r>
       <r>    6.9268    1.0000 </r>
       <r>    7.5842    0.9995 </r>
       <r>    7.7544    0.0620 </r>
       <r>    8.8156    0.0000 </r>
       <r>    9.1976    0.0000 </r>
       <r>   10.0229    0.0000 </r>
       <r>   10.9648    0.0000 </r>
       <r>   23.2318    0.0000 </r>
       <r>   23.7535    0.0000 </r>
       <r>   24.4669    0.0000 </r>
       <r>   25.3310    0.0000 </r>
       <r>   28.0800    0.0000 </r>
       <r>   29.2650    0.0000 </r>
       <r>   29.5897    0.0000 </r>
       <r>   30.8851    0.0000 </r>
       <r>   37.2952    0.0000 </r>
       <r>   38.4975    0.0000 </r>
       <r>   41.1820    0.0000 </r>
       <r>   43.2778    0.0000 </r>
      </set>
      <set comment="kpoint 27">
       <r>    1.3994    1.0000 </r>
       <r>    4.1160    1.0000 </r>
       <r>    4.2642    1.0000 </r>
       <r>    6.2344    1.0000 </r>
       <r>    6.4109    1.0000 </r>
       <r>    7.6855    0.6594 </r>
       <r>    7.9797    0.0000 </r>
       <r>    8.6136    0.0000 </r>
       <r>    8.9118    0.0000 </r>
       <r>    9.1339    0.0000 </r>
       <r>   10.0591    0.0000 </r>
       <r>   16.4010    0.0000 </r>
       <r>   17.9954    0.0000 </r>
       <r>   20.1129    0.0000 </r>
       <r>   26.8791    0.0000 </r>
       <r>   27.1856    0.0000 </r>
       <r>   28.4982    0.0000 </r>
       <r>   28.6000    0.0000 </r>
       <r>   31.9769    0.0000 </r>
       <r>   34.0874    0.0000 </r>
       <r>   35.2154    0.0000 </r>
       <r>   37.7916    0.0000 </r>
       <r>   39.3443    0.0000 </r>
       <r>   40.5406    0.0000 </r>
      </set>
      <set comment="kpoint 28">
       <r>    2.1039    1.0000 </r>
       <r>    4.3428    1.0000 </r>
       <r>    4.6860    1.0000 </r>
       <r>    6.0663    1.0000 </r>
       <r>    6.3019    1.0000 </r>
       <r>    7.0765    1.0000 </r>
       <r>    8.4066    0.0000 </r>
       <r>    8.4843    0.0000 </r>
       <r>    8.6227    0.0000 </r>
       <r>    9.0966    0.0000 </r>
       <r>   10.0291    0.0000 </r>
       <r>   14.7147    0.0000 </r>
       <r>   18.7164    0.0000 </r>
       <r>   21.1649    0.0000 </r>
       <r>   25.6331    0.0000 </r>
       <r>   27.2277    0.0000 </r>
       <r>   27.6879    0.0000 </r>
       <r>   29.7415    0.0000 </r>
       <r>   31.9265    0.0000 </r>
       <r>   33.1487    0.0000 </r>
       <r>   36.7303    0.0000 </r>
       <r>   37.1292    0.0000 </r>
       <r>   38.8508    0.0000 </r>
       <r>   40.4855    0.0000 </r>
      </set>
      <set comment="kpoint 29">
       <r>    2.9056    1.0000 </r>
       <r>    4.4265    1.0000 </r>
       <r>    5.1099    1.0000 </r>
       <r>    5.9774    1.0000 </r>
       <r>    6.2570    1.0000 </r>
       <r>    6.6867    1.0000 </r>
       <r>    8.1661    0.0000 </r>
       <r>    8.2264    0.0000 </r>
       <r>    8.9492    0.0000 </r>
       <r>    9.4402    0.0000 </r>
       <r>    9.8315    0.0000 </r>
       <r>   12.8371    0.0000 </r>
       <r>   19.9382    0.0000 </r>
       <r>   22.4184    0.0000 </r>
       <r>   24.1104    0.0000 </r>
       <r>   26.4072    0.0000 </r>
       <r>   27.7401    0.0000 </r>
       <r>   30.7066    0.0000 </r>
       <r>   30.9188    0.0000 </r>
       <r>   33.0865    0.0000 </r>
       <r>   36.0988    0.0000 </r>
       <r>   37.3177    0.0000 </r>
       <r>   39.3100    0.0000 </r>
       <r>   41.1073    0.0000 </r>
      </set>
      <set comment="kpoint 30">
       <r>    3.6383    1.0000 </r>
       <r>    4.1769    1.0000 </r>
       <r>    5.5101    1.0000 </r>
       <r>    5.8210    1.0000 </r>
       <r>    6.3343    1.0000 </r>
       <r>    6.4836    1.0000 </r>
       <r>    8.0319    0.0000 </r>
       <r>    8.0477    0.0000 </r>
       <r>    9.2642    0.0000 </r>
       <r>    9.5419    0.0000 </r>
       <r>   10.1328    0.0000 </r>
       <r>   11.2663    0.0000 </r>
       <r>   21.2651    0.0000 </r>
       <r>   22.6555    0.0000 </r>
       <r>   23.7307    0.0000 </r>
       <r>   25.0526    0.0000 </r>
       <r>   28.5444    0.0000 </r>
       <r>   29.6603    0.0000 </r>
       <r>   31.6530    0.0000 </r>
       <r>   32.5965    0.0000 </r>
       <r>   35.9424    0.0000 </r>
       <r>   36.5977    0.0000 </r>
       <r>   40.5162    0.0000 </r>
       <r>   41.8383    0.0000 </r>
      </set>
      <set comment="kpoint 31">
       <r>    2.6519    1.0000 </r>
       <r>    4.3232    1.0000 </r>
       <r>    5.2201    1.0000 </r>
       <r>    5.7919    1.0000 </r>
       <r>    6.2778    1.0000 </r>
       <r>    6.5204    1.0000 </r>
       <r>    8.3604    0.0000 </r>
       <r>    8.6261    0.0000 </r>
       <r>    9.0333    0.0000 </r>
       <r>    9.0484    0.0000 </r>
       <r>   10.1503    0.0000 </r>
       <r>   14.4588    0.0000 </r>
       <r>   17.7993    0.0000 </r>
       <r>   21.9629    0.0000 </r>
       <r>   23.9255    0.0000 </r>
       <r>   27.0741    0.0000 </r>
       <r>   27.4858    0.0000 </r>
       <r>   31.4838    0.0000 </r>
       <r>   31.6939    0.0000 </r>
       <r>   32.5114    0.0000 </r>
       <r>   36.3737    0.0000 </r>
       <r>   38.1618    0.0000 </r>
       <r>   39.1591    0.0000 </r>
       <r>   40.3519    0.0000 </r>
      </set>
      <set comment="kpoint 32">
       <r>    3.1865    1.0000 </r>
       <r>    4.1843    1.0000 </r>
       <r>    5.6469    1.0000 </r>
       <r>    5.7134    1.0000 </r>
       <r>    6.1872    1.0000 </r>
       <r>    6.4208    1.0000 </r>
       <r>    8.2738    0.0000 </r>
       <r>    8.5710    0.0000 </r>
       <r>    9.2002    0.0000 </r>
       <r>    9.6603    0.0000 </r>
       <r>   10.0783    0.0000 </r>
       <r>   13.0643    0.0000 </r>
       <r>   18.3379    0.0000 </r>
       <r>   22.2690    0.0000 </r>
       <r>   22.9516    0.0000 </r>
       <r>   26.1575    0.0000 </r>
       <r>   27.8507    0.0000 </r>
       <r>   30.3772    0.0000 </r>
       <r>   32.7972    0.0000 </r>
       <r>   33.1749    0.0000 </r>
       <r>   35.6737    0.0000 </r>
       <r>   37.8027    0.0000 </r>
       <r>   39.0696    0.0000 </r>
       <r>   40.8810    0.0000 </r>
      </set>
      <set comment="kpoint 33">
       <r>    3.6076    1.0000 </r>
       <r>    3.9336    1.0000 </r>
       <r>    5.6353    1.0000 </r>
       <r>    5.7357    1.0000 </r>
       <r>    6.3552    1.0000 </r>
       <r>    6.5262    1.0000 </r>
       <r>    8.3740    0.0000 </r>
       <r>    8.4870    0.0000 </r>
       <r>    9.4674    0.0000 </r>
       <r>    9.8145    0.0000 </r>
       <r>   10.4272    0.0000 </r>
       <r>   11.5595    0.0000 </r>
       <r>   19.4332    0.0000 </r>
       <r>   20.7608    0.0000 </r>
       <r>   24.0146    0.0000 </r>
       <r>   25.0915    0.0000 </r>
       <r>   28.4646    0.0000 </r>
       <r>   29.3473    0.0000 </r>
       <r>   33.2162    0.0000 </r>
       <r>   33.6332    0.0000 </r>
       <r>   35.7494    0.0000 </r>
       <r>   36.8183    0.0000 </r>
       <r>   39.3696    0.0000 </r>
       <r>   40.2903    0.0000 </r>
      </set>
      <set comment="kpoint 34">
       <r>    3.3594    1.0000 </r>
       <r>    3.8949    1.0000 </r>
       <r>    5.4228    1.0000 </r>
       <r>    5.7315    1.0000 </r>
       <r>    6.4784    1.0000 </r>
       <r>    6.9514    1.0000 </r>
       <r>    8.4331    0.0000 </r>
       <r>    8.7946    0.0000 </r>
       <r>    9.1556    0.0000 </r>
       <r>   10.1277    0.0000 </r>
       <r>   10.2070    0.0000 </r>
       <r>   12.6048    0.0000 </r>
       <r>   17.7535    0.0000 </r>
       <r>   20.5987    0.0000 </r>
       <r>   23.6237    0.0000 </r>
       <r>   25.7129    0.0000 </r>
       <r>   27.9960    0.0000 </r>
       <r>   29.5135    0.0000 </r>
       <r>   32.8026    0.0000 </r>
       <r>   34.3006    0.0000 </r>
       <r>   35.5810    0.0000 </r>
       <r>   37.7141    0.0000 </r>
       <r>   39.9354    0.0000 </r>
       <r>   41.6714    0.0000 </r>
      </set>
      <set comment="kpoint 35">
       <r>    3.4828    1.0000 </r>
       <r>    3.6505    1.0000 </r>
       <r>    5.3571    1.0000 </r>
       <r>    5.4641    1.0000 </r>
       <r>    7.0909    1.0000 </r>
       <r>    7.3334    1.0000 </r>
       <r>    8.6527    0.0000 </r>
       <r>    8.7961    0.0000 </r>
       <r>    9.3917    0.0000 </r>
       <r>    9.8758    0.0000 </r>
       <r>   10.8022    0.0000 </r>
       <r>   11.6274    0.0000 </r>
       <r>   18.1889    0.0000 </r>
       <r>   19.2084    0.0000 </r>
       <r>   24.3516    0.0000 </r>
       <r>   25.0720    0.0000 </r>
       <r>   28.2995    0.0000 </r>
       <r>   28.8062    0.0000 </r>
       <r>   32.9872    0.0000 </r>
       <r>   33.4535    0.0000 </r>
       <r>   37.5369    0.0000 </r>
       <r>   37.8985    0.0000 </r>
       <r>   39.0205    0.0000 </r>
       <r>   39.8500    0.0000 </r>
      </set>
      <set comment="kpoint 36">
       <r>    3.4103    1.0000 </r>
       <r>    3.4624    1.0000 </r>
       <r>    5.2163    1.0000 </r>
       <r>    5.2543    1.0000 </r>
       <r>    7.8899    0.0000 </r>
       <r>    8.1062    0.0000 </r>
       <r>    8.8456    0.0000 </r>
       <r>    8.9105    0.0000 </r>
       <r>    9.2380    0.0000 </r>
       <r>    9.5872    0.0000 </r>
       <r>   11.1291    0.0000 </r>
       <r>   11.4229    0.0000 </r>
       <r>   17.7660    0.0000 </r>
       <r>   18.1577    0.0000 </r>
       <r>   24.6759    0.0000 </r>
       <r>   24.9312    0.0000 </r>
       <r>   28.2129    0.0000 </r>
       <r>   28.3669    0.0000 </r>
       <r>   32.9226    0.0000 </r>
       <r>   33.0547    0.0000 </r>
       <r>   37.7422    0.0000 </r>
       <r>   38.0688    0.0000 </r>
       <r>   39.7959    0.0000 </r>
       <r>   41.0570    0.0000 </r>
      </set>
      <set comment="kpoint 37">
       <r>    1.8588    1.0000 </r>
       <r>    4.4357    1.0000 </r>
       <r>    4.4357    1.0000 </r>
       <r>    6.1095    1.0000 </r>
       <r>    6.1095    1.0000 </r>
       <r>    6.9624    1.0000 </r>
       <r>    8.4830    0.0000 </r>
       <r>    8.7896    0.0000 </r>
       <r>    8.7896    0.0000 </r>
       <r>    9.5357    0.0000 </r>
       <r>    9.5357    0.0000 </r>
       <r>   17.3048    0.0000 </r>
       <r>   17.3048    0.0000 </r>
       <r>   19.1732    0.0000 </r>
       <r>   26.9975    0.0000 </r>
       <r>   26.9975    0.0000 </r>
       <r>   28.7711    0.0000 </r>
       <r>   28.7711    0.0000 </r>
       <r>   31.9964    0.0000 </r>
       <r>   32.6971    0.0000 </r>
       <r>   35.4090    0.0000 </r>
       <r>   39.7972    0.0000 </r>
       <r>   39.7972    0.0000 </r>
       <r>   40.4941    0.0000 </r>
      </set>
      <set comment="kpoint 38">
       <r>    2.5281    1.0000 </r>
       <r>    4.6940    1.0000 </r>
       <r>    4.7704    1.0000 </r>
       <r>    5.9350    1.0000 </r>
       <r>    5.9406    1.0000 </r>
       <r>    6.4046    1.0000 </r>
       <r>    8.6032    0.0000 </r>
       <r>    8.9693    0.0000 </r>
       <r>    9.0056    0.0000 </r>
       <r>    9.0791    0.0000 </r>
       <r>    9.6958    0.0000 </r>
       <r>   15.3774    0.0000 </r>
       <r>   18.4931    0.0000 </r>
       <r>   19.7070    0.0000 </r>
       <r>   25.3860    0.0000 </r>
       <r>   26.2418    0.0000 </r>
       <r>   29.2502    0.0000 </r>
       <r>   30.2542    0.0000 </r>
       <r>   30.7492    0.0000 </r>
       <r>   33.0809    0.0000 </r>
       <r>   35.4668    0.0000 </r>
       <r>   38.6256    0.0000 </r>
       <r>   40.5320    0.0000 </r>
       <r>   40.5747    0.0000 </r>
      </set>
      <set comment="kpoint 39">
       <r>    3.2557    1.0000 </r>
       <r>    4.7599    1.0000 </r>
       <r>    4.9971    1.0000 </r>
       <r>    5.7531    1.0000 </r>
       <r>    5.9777    1.0000 </r>
       <r>    6.2577    1.0000 </r>
       <r>    8.3987    0.0000 </r>
       <r>    8.5234    0.0000 </r>
       <r>    9.2178    0.0000 </r>
       <r>    9.6468    0.0000 </r>
       <r>    9.7518    0.0000 </r>
       <r>   13.4645    0.0000 </r>
       <r>   19.7943    0.0000 </r>
       <r>   20.6662    0.0000 </r>
       <r>   23.8828    0.0000 </r>
       <r>   24.8367    0.0000 </r>
       <r>   29.9548    0.0000 </r>
       <r>   30.4936    0.0000 </r>
       <r>   30.9604    0.0000 </r>
       <r>   32.7760    0.0000 </r>
       <r>   35.3254    0.0000 </r>
       <r>   37.3161    0.0000 </r>
       <r>   40.9941    0.0000 </r>
       <r>   42.1010    0.0000 </r>
      </set>
      <set comment="kpoint 40">
       <r>    3.8871    1.0000 </r>
       <r>    4.3904    1.0000 </r>
       <r>    5.2931    1.0000 </r>
       <r>    5.5446    1.0000 </r>
       <r>    6.1892    1.0000 </r>
       <r>    6.3179    1.0000 </r>
       <r>    8.2592    0.0000 </r>
       <r>    8.2816    0.0000 </r>
       <r>    9.3606    0.0000 </r>
       <r>    9.4989    0.0000 </r>
       <r>   10.6371    0.0000 </r>
       <r>   11.8560    0.0000 </r>
       <r>   21.1271    0.0000 </r>
       <r>   21.8665    0.0000 </r>
       <r>   22.4786    0.0000 </r>
       <r>   23.2794    0.0000 </r>
       <r>   30.7209    0.0000 </r>
       <r>   30.8709    0.0000 </r>
       <r>   31.0001    0.0000 </r>
       <r>   31.8992    0.0000 </r>
       <r>   35.4994    0.0000 </r>
       <r>   36.2008    0.0000 </r>
       <r>   42.3959    0.0000 </r>
       <r>   44.1398    0.0000 </r>
      </set>
      <set comment="kpoint 41">
       <r>    3.1029    1.0000 </r>
       <r>    4.7239    1.0000 </r>
       <r>    5.2494    1.0000 </r>
       <r>    5.6674    1.0000 </r>
       <r>    5.8412    1.0000 </r>
       <r>    5.8945    1.0000 </r>
       <r>    8.7607    0.0000 </r>
       <r>    8.8459    0.0000 </r>
       <r>    9.0091    0.0000 </r>
       <r>    9.6518    0.0000 </r>
       <r>    9.7055    0.0000 </r>
       <r>   15.4045    0.0000 </r>
       <r>   17.6647    0.0000 </r>
       <r>   20.0140    0.0000 </r>
       <r>   24.0138    0.0000 </r>
       <r>   25.5953    0.0000 </r>
       <r>   29.0469    0.0000 </r>
       <r>   29.9750    0.0000 </r>
       <r>   32.0060    0.0000 </r>
       <r>   33.8115    0.0000 </r>
       <r>   34.0301    0.0000 </r>
       <r>   40.1261    0.0000 </r>
       <r>   40.3643    0.0000 </r>
       <r>   41.4827    0.0000 </r>
      </set>
      <set comment="kpoint 42">
       <r>    3.6278    1.0000 </r>
       <r>    4.5626    1.0000 </r>
       <r>    5.4384    1.0000 </r>
       <r>    5.5178    1.0000 </r>
       <r>    5.9401    1.0000 </r>
       <r>    5.9617    1.0000 </r>
       <r>    8.6331    0.0000 </r>
       <r>    8.6924    0.0000 </r>
       <r>    9.1825    0.0000 </r>
       <r>    9.6393    0.0000 </r>
       <r>   10.4029    0.0000 </r>
       <r>   13.9664    0.0000 </r>
       <r>   18.3496    0.0000 </r>
       <r>   20.8525    0.0000 </r>
       <r>   22.3912    0.0000 </r>
       <r>   24.5915    0.0000 </r>
       <r>   28.4979    0.0000 </r>
       <r>   30.0926    0.0000 </r>
       <r>   32.5852    0.0000 </r>
       <r>   33.8778    0.0000 </r>
       <r>   34.4028    0.0000 </r>
       <r>   39.2098    0.0000 </r>
       <r>   40.8710    0.0000 </r>
       <r>   42.8835    0.0000 </r>
      </set>
      <set comment="kpoint 43">
       <r>    3.9904    1.0000 </r>
       <r>    4.2827    1.0000 </r>
       <r>    5.4108    1.0000 </r>
       <r>    5.4372    1.0000 </r>
       <r>    6.1941    1.0000 </r>
       <r>    6.2434    1.0000 </r>
       <r>    8.5632    0.0000 </r>
       <r>    8.5971    0.0000 </r>
       <r>    9.3555    0.0000 </r>
       <r>    9.5131    0.0000 </r>
       <r>   11.2630    0.0000 </r>
       <r>   12.4453    0.0000 </r>
       <r>   19.5182    0.0000 </r>
       <r>   20.8754    0.0000 </r>
       <r>   21.9477    0.0000 </r>
       <r>   23.2359    0.0000 </r>
       <r>   28.8448    0.0000 </r>
       <r>   29.5570    0.0000 </r>
       <r>   32.7012    0.0000 </r>
       <r>   33.3361    0.0000 </r>
       <r>   36.0857    0.0000 </r>
       <r>   37.7097    0.0000 </r>
       <r>   41.8076    0.0000 </r>
       <r>   42.9600    0.0000 </r>
      </set>
      <set comment="kpoint 44">
       <r>    3.8196    1.0000 </r>
       <r>    4.2586    1.0000 </r>
       <r>    5.3324    1.0000 </r>
       <r>    5.4920    1.0000 </r>
       <r>    6.2769    1.0000 </r>
       <r>    6.3135    1.0000 </r>
       <r>    8.7010    0.0000 </r>
       <r>    8.8772    0.0000 </r>
       <r>    9.1660    0.0000 </r>
       <r>    9.6316    0.0000 </r>
       <r>   11.0855    0.0000 </r>
       <r>   13.7387    0.0000 </r>
       <r>   17.6974    0.0000 </r>
       <r>   20.7306    0.0000 </r>
       <r>   21.5436    0.0000 </r>
       <r>   24.4292    0.0000 </r>
       <r>   27.1795    0.0000 </r>
       <r>   29.1180    0.0000 </r>
       <r>   33.2217    0.0000 </r>
       <r>   34.3972    0.0000 </r>
       <r>   35.9122    0.0000 </r>
       <r>   40.0421    0.0000 </r>
       <r>   42.0367    0.0000 </r>
       <r>   42.4782    0.0000 </r>
      </set>
      <set comment="kpoint 45">
       <r>    3.9018    1.0000 </r>
       <r>    4.0293    1.0000 </r>
       <r>    5.2665    1.0000 </r>
       <r>    5.3308    1.0000 </r>
       <r>    6.7143    1.0000 </r>
       <r>    6.7281    1.0000 </r>
       <r>    8.7990    0.0000 </r>
       <r>    8.8690    0.0000 </r>
       <r>    9.2928    0.0000 </r>
       <r>    9.4872    0.0000 </r>
       <r>   11.8436    0.0000 </r>
       <r>   12.7925    0.0000 </r>
       <r>   18.2015    0.0000 </r>
       <r>   19.2957    0.0000 </r>
       <r>   22.4910    0.0000 </r>
       <r>   23.5888    0.0000 </r>
       <r>   27.1400    0.0000 </r>
       <r>   27.9616    0.0000 </r>
       <r>   33.7096    0.0000 </r>
       <r>   34.2346    0.0000 </r>
       <r>   38.0220    0.0000 </r>
       <r>   39.7573    0.0000 </r>
       <r>   41.0306    0.0000 </r>
       <r>   41.6126    0.0000 </r>
      </set>
      <set comment="kpoint 46">
       <r>    3.8242    1.0000 </r>
       <r>    3.8604    1.0000 </r>
       <r>    5.1545    1.0000 </r>
       <r>    5.1829    1.0000 </r>
       <r>    7.2411    1.0000 </r>
       <r>    7.2643    1.0000 </r>
       <r>    8.9483    0.0000 </r>
       <r>    8.9834    0.0000 </r>
       <r>    9.2515    0.0000 </r>
       <r>    9.3556    0.0000 </r>
       <r>   12.3394    0.0000 </r>
       <r>   12.7214    0.0000 </r>
       <r>   17.7326    0.0000 </r>
       <r>   18.1725    0.0000 </r>
       <r>   23.2243    0.0000 </r>
       <r>   23.7680    0.0000 </r>
       <r>   26.2036    0.0000 </r>
       <r>   26.6632    0.0000 </r>
       <r>   34.3279    0.0000 </r>
       <r>   34.5627    0.0000 </r>
       <r>   40.1571    0.0000 </r>
       <r>   40.2208    0.0000 </r>
       <r>   40.6015    0.0000 </r>
       <r>   41.6568    0.0000 </r>
      </set>
      <set comment="kpoint 47">
       <r>    3.7148    1.0000 </r>
       <r>    5.2752    1.0000 </r>
       <r>    5.2752    1.0000 </r>
       <r>    5.3156    1.0000 </r>
       <r>    5.5156    1.0000 </r>
       <r>    5.5156    1.0000 </r>
       <r>    8.9574    0.0000 </r>
       <r>    8.9574    0.0000 </r>
       <r>    9.1970    0.0000 </r>
       <r>    9.1970    0.0000 </r>
       <r>   10.4494    0.0000 </r>
       <r>   16.6081    0.0000 </r>
       <r>   16.6081    0.0000 </r>
       <r>   19.2725    0.0000 </r>
       <r>   23.9643    0.0000 </r>
       <r>   23.9643    0.0000 </r>
       <r>   27.0458    0.0000 </r>
       <r>   31.7376    0.0000 </r>
       <r>   32.5274    0.0000 </r>
       <r>   32.5274    0.0000 </r>
       <r>   35.0056    0.0000 </r>
       <r>   41.0486    0.0000 </r>
       <r>   41.0486    0.0000 </r>
       <r>   42.7641    0.0000 </r>
      </set>
      <set comment="kpoint 48">
       <r>    4.1944    1.0000 </r>
       <r>    4.8522    1.0000 </r>
       <r>    5.2830    1.0000 </r>
       <r>    5.3862    1.0000 </r>
       <r>    5.5511    1.0000 </r>
       <r>    5.8117    1.0000 </r>
       <r>    8.8820    0.0000 </r>
       <r>    8.9086    0.0000 </r>
       <r>    9.1582    0.0000 </r>
       <r>    9.3601    0.0000 </r>
       <r>   11.2272    0.0000 </r>
       <r>   14.8990    0.0000 </r>
       <r>   17.9367    0.0000 </r>
       <r>   19.6582    0.0000 </r>
       <r>   22.3547    0.0000 </r>
       <r>   23.1326    0.0000 </r>
       <r>   26.3703    0.0000 </r>
       <r>   29.7919    0.0000 </r>
       <r>   33.2464    0.0000 </r>
       <r>   34.8483    0.0000 </r>
       <r>   35.4455    0.0000 </r>
       <r>   40.4037    0.0000 </r>
       <r>   41.9798    0.0000 </r>
       <r>   44.2342    0.0000 </r>
      </set>
      <set comment="kpoint 49">
       <r>    4.3814    1.0000 </r>
       <r>    4.5498    1.0000 </r>
       <r>    5.2835    1.0000 </r>
       <r>    5.3090    1.0000 </r>
       <r>    5.9118    1.0000 </r>
       <r>    6.0738    1.0000 </r>
       <r>    8.7970    0.0000 </r>
       <r>    8.8108    0.0000 </r>
       <r>    9.3031    0.0000 </r>
       <r>    9.3743    0.0000 </r>
       <r>   12.1376    0.0000 </r>
       <r>   13.3444    0.0000 </r>
       <r>   19.3415    0.0000 </r>
       <r>   20.5216    0.0000 </r>
       <r>   20.8126    0.0000 </r>
       <r>   21.7424    0.0000 </r>
       <r>   26.9561    0.0000 </r>
       <r>   28.1589    0.0000 </r>
       <r>   34.1117    0.0000 </r>
       <r>   34.9720    0.0000 </r>
       <r>   36.9911    0.0000 </r>
       <r>   38.8905    0.0000 </r>
       <r>   43.6426    0.0000 </r>
       <r>   45.0318    0.0000 </r>
      </set>
      <set comment="kpoint 50">
       <r>    4.4883    1.0000 </r>
       <r>    4.6414    1.0000 </r>
       <r>    5.2364    1.0000 </r>
       <r>    5.3828    1.0000 </r>
       <r>    5.6903    1.0000 </r>
       <r>    5.9779    1.0000 </r>
       <r>    8.9785    0.0000 </r>
       <r>    9.0178    0.0000 </r>
       <r>    9.1713    0.0000 </r>
       <r>    9.3201    0.0000 </r>
       <r>   12.0563    0.0000 </r>
       <r>   15.0656    0.0000 </r>
       <r>   17.4389    0.0000 </r>
       <r>   19.8866    0.0000 </r>
       <r>   20.9934    0.0000 </r>
       <r>   22.8764    0.0000 </r>
       <r>   24.9045    0.0000 </r>
       <r>   27.9494    0.0000 </r>
       <r>   34.7043    0.0000 </r>
       <r>   36.4298    0.0000 </r>
       <r>   36.4476    0.0000 </r>
       <r>   41.6345    0.0000 </r>
       <r>   42.1181    0.0000 </r>
       <r>   44.2575    0.0000 </r>
      </set>
      <set comment="kpoint 51">
       <r>    4.4646    1.0000 </r>
       <r>    4.4842    1.0000 </r>
       <r>    5.1994    1.0000 </r>
       <r>    5.2688    1.0000 </r>
       <r>    6.1123    1.0000 </r>
       <r>    6.2381    1.0000 </r>
       <r>    8.9852    0.0000 </r>
       <r>    9.0095    0.0000 </r>
       <r>    9.2678    0.0000 </r>
       <r>    9.3232    0.0000 </r>
       <r>   12.9547    0.0000 </r>
       <r>   14.0351    0.0000 </r>
       <r>   18.2330    0.0000 </r>
       <r>   19.5016    0.0000 </r>
       <r>   20.7347    0.0000 </r>
       <r>   21.9151    0.0000 </r>
       <r>   25.1099    0.0000 </r>
       <r>   26.3046    0.0000 </r>
       <r>   35.6411    0.0000 </r>
       <r>   36.3500    0.0000 </r>
       <r>   38.6683    0.0000 </r>
       <r>   40.6763    0.0000 </r>
       <r>   43.2656    0.0000 </r>
       <r>   44.2658    0.0000 </r>
      </set>
      <set comment="kpoint 52">
       <r>    4.3987    1.0000 </r>
       <r>    4.4058    1.0000 </r>
       <r>    5.1023    1.0000 </r>
       <r>    5.1412    1.0000 </r>
       <r>    6.4977    1.0000 </r>
       <r>    6.5422    1.0000 </r>
       <r>    9.0835    0.0000 </r>
       <r>    9.0986    0.0000 </r>
       <r>    9.2683    0.0000 </r>
       <r>    9.2950    0.0000 </r>
       <r>   13.6786    0.0000 </r>
       <r>   14.1704    0.0000 </r>
       <r>   17.7172    0.0000 </r>
       <r>   18.2745    0.0000 </r>
       <r>   21.5546    0.0000 </r>
       <r>   22.2844    0.0000 </r>
       <r>   23.9881    0.0000 </r>
       <r>   24.7213    0.0000 </r>
       <r>   36.5734    0.0000 </r>
       <r>   36.8856    0.0000 </r>
       <r>   40.8778    0.0000 </r>
       <r>   42.1448    0.0000 </r>
       <r>   43.1470    0.0000 </r>
       <r>   43.2496    0.0000 </r>
      </set>
      <set comment="kpoint 53">
       <r>    4.7132    1.0000 </r>
       <r>    5.1900    1.0000 </r>
       <r>    5.1900    1.0000 </r>
       <r>    5.2113    1.0000 </r>
       <r>    5.6582    1.0000 </r>
       <r>    5.6582    1.0000 </r>
       <r>    9.1647    0.0000 </r>
       <r>    9.1647    0.0000 </r>
       <r>    9.1799    0.0000 </r>
       <r>    9.1799    0.0000 </r>
       <r>   13.0215    0.0000 </r>
       <r>   16.5069    0.0000 </r>
       <r>   16.5069    0.0000 </r>
       <r>   19.3085    0.0000 </r>
       <r>   21.2461    0.0000 </r>
       <r>   21.2461    0.0000 </r>
       <r>   23.2257    0.0000 </r>
       <r>   26.1305    0.0000 </r>
       <r>   37.1530    0.0000 </r>
       <r>   37.1530    0.0000 </r>
       <r>   38.2355    0.0000 </r>
       <r>   42.3682    0.0000 </r>
       <r>   42.3682    0.0000 </r>
       <r>   45.4107    0.0000 </r>
      </set>
      <set comment="kpoint 54">
       <r>    4.7241    1.0000 </r>
       <r>    4.8724    1.0000 </r>
       <r>    5.2362    1.0000 </r>
       <r>    5.3956    1.0000 </r>
       <r>    5.7415    1.0000 </r>
       <r>    5.8930    1.0000 </r>
       <r>    9.1422    0.0000 </r>
       <r>    9.1492    0.0000 </r>
       <r>    9.2636    0.0000 </r>
       <r>    9.2744    0.0000 </r>
       <r>   14.0281    0.0000 </r>
       <r>   15.1988    0.0000 </r>
       <r>   18.0311    0.0000 </r>
       <r>   19.6182    0.0000 </r>
       <r>   19.7051    0.0000 </r>
       <r>   20.6048    0.0000 </r>
       <r>   23.2602    0.0000 </r>
       <r>   24.4747    0.0000 </r>
       <r>   37.9474    0.0000 </r>
       <r>   38.5849    0.0000 </r>
       <r>   39.6795    0.0000 </r>
       <r>   41.7473    0.0000 </r>
       <r>   44.1142    0.0000 </r>
       <r>   45.4588    0.0000 </r>
      </set>
      <set comment="kpoint 55">
       <r>    4.8363    1.0000 </r>
       <r>    4.9806    1.0000 </r>
       <r>    5.1145    1.0000 </r>
       <r>    5.2652    1.0000 </r>
       <r>    5.8969    1.0000 </r>
       <r>    5.9504    1.0000 </r>
       <r>    9.2108    0.0000 </r>
       <r>    9.2150    0.0000 </r>
       <r>    9.2825    0.0000 </r>
       <r>    9.2861    0.0000 </r>
       <r>   15.0253    0.0000 </r>
       <r>   15.7192    0.0000 </r>
       <r>   17.7112    0.0000 </r>
       <r>   18.5637    0.0000 </r>
       <r>   20.0218    0.0000 </r>
       <r>   20.6643    0.0000 </r>
       <r>   22.1241    0.0000 </r>
       <r>   22.8893    0.0000 </r>
       <r>   39.3706    0.0000 </r>
       <r>   39.7047    0.0000 </r>
       <r>   41.6726    0.0000 </r>
       <r>   43.3820    0.0000 </r>
       <r>   44.2101    0.0000 </r>
       <r>   45.0966    0.0000 </r>
      </set>
      <set comment="kpoint 56">
       <r>    5.0567    1.0000 </r>
       <r>    5.2403    1.0000 </r>
       <r>    5.2403    1.0000 </r>
       <r>    5.5138    1.0000 </r>
       <r>    5.5138    1.0000 </r>
       <r>    5.5815    1.0000 </r>
       <r>    9.2893    0.0000 </r>
       <r>    9.2893    0.0000 </r>
       <r>    9.2898    0.0000 </r>
       <r>    9.2898    0.0000 </r>
       <r>   16.2922    0.0000 </r>
       <r>   17.3377    0.0000 </r>
       <r>   17.3377    0.0000 </r>
       <r>   18.9978    0.0000 </r>
       <r>   18.9978    0.0000 </r>
       <r>   19.1927    0.0000 </r>
       <r>   21.0360    0.0000 </r>
       <r>   21.4432    0.0000 </r>
       <r>   42.3842    0.0000 </r>
       <r>   42.4274    0.0000 </r>
       <r>   42.4274    0.0000 </r>
       <r>   44.3173    0.0000 </r>
       <r>   44.3173    0.0000 </r>
       <r>   45.8790    0.0000 </r>
      </set>
     </set>
    </set>
   </array>
  </eigenvalues>
  <separator name="orbital magnetization" >
   <v name="MAGDIPOLOUT">      0.00000000      0.00000000      0.00000000</v>
  </separator>
  <dos>
   <i name="efermi">      7.70001813 </i>
   <total>
    <array>
     <dimension dim="1">gridpoints</dimension>
     <dimension dim="2">spin</dimension>
     <field>energy</field>
     <field>total</field>
     <field>integrated</field>
     <set>
      <set comment="spin 1">
       <r>    -2.4209     0.0000     0.0000 </r>
       <r>    -2.2522     0.0000     0.0000 </r>
       <r>    -2.0836     0.0000     0.0000 </r>
       <r>    -1.9149     0.0000     0.0000 </r>
       <r>    -1.7462     0.0000     0.0000 </r>
       <r>    -1.5776     0.0000     0.0000 </r>
       <r>    -1.4089     0.0000     0.0000 </r>
       <r>    -1.2403     0.0000     0.0000 </r>
       <r>    -1.0716     0.0000     0.0000 </r>
       <r>    -0.9029     0.0000     0.0000 </r>
       <r>    -0.7343     0.0000     0.0000 </r>
       <r>    -0.5656     0.0000     0.0000 </r>
       <r>    -0.3969     0.0000     0.0000 </r>
       <r>    -0.2283     0.0000     0.0000 </r>
       <r>    -0.0596     0.0085     0.0014 </r>
       <r>     0.1091     0.0489     0.0097 </r>
       <r>     0.2777     0.0955     0.0258 </r>
       <r>     0.4464     0.0728     0.0381 </r>
       <r>     0.6151     0.0540     0.0472 </r>
       <r>     0.7837     0.1743     0.0766 </r>
       <r>     0.9524     0.2191     0.1135 </r>
       <r>     1.1211     0.0487     0.1217 </r>
       <r>     1.2897     0.0997     0.1385 </r>
       <r>     1.4584     0.2593     0.1823 </r>
       <r>     1.6271     0.2276     0.2207 </r>
       <r>     1.7957     0.2170     0.2572 </r>
       <r>     1.9644     0.2091     0.2925 </r>
       <r>     2.1331     0.4142     0.3624 </r>
       <r>     2.3017     0.0877     0.3772 </r>
       <r>     2.4704     0.1142     0.3964 </r>
       <r>     2.6391     0.6824     0.5115 </r>
       <r>     2.8077     0.4043     0.5797 </r>
       <r>     2.9764     0.4631     0.6578 </r>
       <r>     3.1451     0.4552     0.7346 </r>
       <r>     3.3137     0.9392     0.8930 </r>
       <r>     3.4824     1.5578     1.1558 </r>
       <r>     3.6511     2.4066     1.5617 </r>
       <r>     3.8197     1.4270     1.8024 </r>
       <r>     3.9884     2.7239     2.2618 </r>
       <r>     4.1571     2.0963     2.6154 </r>
       <r>     4.3257     3.4096     3.1905 </r>
       <r>     4.4944     3.1254     3.7176 </r>
       <r>     4.6631     1.4278     3.9584 </r>
       <r>     4.8317     1.8825     4.2760 </r>
       <r>     5.0004     1.0682     4.4561 </r>
       <r>     5.1691     1.7346     4.7487 </r>
       <r>     5.3377     5.1392     5.6155 </r>
       <r>     5.5064     4.5263     6.3790 </r>
       <r>     5.6751     2.8047     6.8520 </r>
       <r>     5.8437     3.4820     7.4393 </r>
       <r>     6.0124     3.7961     8.0796 </r>
       <r>     6.1811     2.6890     8.5331 </r>
       <r>     6.3497     4.8876     9.3575 </r>
       <r>     6.5184     4.1583    10.0588 </r>
[...]
       </set>
       <set comment="band 12">
        <r>  0.0000  0.1263  0.0011  0.1103  0.0010  0.0988  0.0004  0.1131  0.0530 </r>
        <r>  0.0000  0.1263  0.0011  0.1103  0.0010  0.0988  0.0004  0.1131  0.0530 </r>
       </set>
       <set comment="band 13">
        <r>  0.0000  0.0321  0.1574  0.0482  0.1409  0.0431  0.0530  0.0288  0.0004 </r>
        <r>  0.0000  0.0321  0.1574  0.0482  0.1409  0.0431  0.0530  0.0288  0.0004 </r>
       </set>
       <set comment="band 14">
        <r>  0.2857  0.0005  0.0005  0.0005  0.0561  0.0561  0.0000  0.0561  0.0000 </r>
        <r>  0.2857  0.0005  0.0005  0.0005  0.0561  0.0561  0.0000  0.0561  0.0000 </r>
       </set>
       <set comment="band 15">
        <r>  0.0000  0.0547  0.0166  0.1225  0.0217  0.1607  0.0042  0.0718  0.0285 </r>
        <r>  0.0000  0.0547  0.0166  0.1225  0.0217  0.1607  0.0042  0.0718  0.0285 </r>
       </set>
       <set comment="band 16">
        <r>  0.0000  0.0745  0.1126  0.0067  0.1478  0.0088  0.0285  0.0977  0.0042 </r>
        <r>  0.0000  0.0745  0.1126  0.0067  0.1478  0.0088  0.0285  0.0977  0.0042 </r>
       </set>
       <set comment="band 17">
        <r>  0.2776  0.0504  0.0504  0.0504  0.0028  0.0028  0.0000  0.0028  0.0000 </r>
        <r>  0.2776  0.0504  0.0504  0.0504  0.0028  0.0028  0.0000  0.0028  0.0000 </r>
       </set>
       <set comment="band 18">
        <r>  0.0728  0.0752  0.0752  0.0752  0.0494  0.0494  0.0000  0.0494  0.0000 </r>
        <r>  0.0728  0.0752  0.0752  0.0752  0.0494  0.0494  0.0000  0.0494  0.0000 </r>
       </set>
       <set comment="band 19">
        <r>  0.0000  0.0008  0.0147  0.0119  0.0391  0.0315  0.1202  0.0022  0.0289 </r>
        <r>  0.0000  0.0008  0.0147  0.0119  0.0391  0.0315  0.1202  0.0022  0.0289 </r>
       </set>
       <set comment="band 20">
        <r>  0.0000  0.0175  0.0035  0.0064  0.0094  0.0170  0.0289  0.0463  0.1202 </r>
        <r>  0.0000  0.0175  0.0035  0.0064  0.0094  0.0170  0.0289  0.0463  0.1202 </r>
       </set>
       <set comment="band 21">
        <r>  0.0000  0.0000  0.0000  0.0000  0.0000  0.0000  0.0000  0.0000  0.0000 </r>
        <r>  0.0000  0.0000  0.0000  0.0000  0.0000  0.0000  0.0000  0.0000  0.0000 </r>
       </set>
       <set comment="band 22">
        <r>  0.0000  0.0005  0.0015  0.0029  0.1171  0.2353  0.0142  0.0394  0.0175 </r>
        <r>  0.0000  0.0005  0.0015  0.0029  0.1171  0.2353  0.0142  0.0394  0.0175 </r>
       </set>
       <set comment="band 23">
        <r>  0.0000  0.0028  0.0018  0.0003  0.1441  0.0259  0.0175  0.2218  0.0142 </r>
        <r>  0.0000  0.0028  0.0018  0.0003  0.1441  0.0259  0.0175  0.2218  0.0142 </r>
       </set>
       <set comment="band 24">
        <r>  0.0377  0.0122  0.0123  0.0123  0.0000  0.0000  0.0000  0.0000  0.0000 </r>
        <r>  0.0378  0.0121  0.0122  0.0122  0.0000  0.0000  0.0000  0.0000  0.0000 </r>
       </set>
      </set>
      <set comment="kpoint 54">
       <set comment="band 1">
        <r>  0.0282  0.0156  0.0156  0.0015  0.1587  0.1088  0.0017  0.1587  0.0051 </r>
        <r>  0.0282  0.0156  0.0156  0.0015  0.1587  0.1088  0.0017  0.1587  0.0051 </r>
       </set>
       <set comment="band 2">
        <r>  0.0278  0.0279  0.0279  0.0009  0.1491  0.0944  0.0036  0.1491  0.0108 </r>
        <r>  0.0278  0.0279  0.0279  0.0009  0.1491  0.0944  0.0036  0.1491  0.0108 </r>
       </set>
       <set comment="band 3">
        <r>  0.0000  0.0377  0.0377  0.0000  0.1838  0.0000  0.0348  0.1838  0.0116 </r>
        <r>  0.0000  0.0377  0.0377  0.0000  0.1838  0.0000  0.0348  0.1838  0.0116 </r>
       </set>
       <set comment="band 4">
        <r>  0.0000  0.0513  0.0513  0.0000  0.1567  0.0000  0.0524  0.1567  0.0175 </r>
        <r>  0.0000  0.0513  0.0513  0.0000  0.1567  0.0000  0.0524  0.1567  0.0175 </r>
       </set>
       <set comment="band 5">
        <r>  0.0303  0.0218  0.0218  0.1092  0.0114  0.2776  0.0004  0.0114  0.0013 </r>
        <r>  0.0303  0.0218  0.0218  0.1092  0.0114  0.2776  0.0004  0.0114  0.0013 </r>
       </set>
       <set comment="band 6">
        <r>  0.0056  0.0213  0.0213  0.1087  0.0186  0.2515  0.0098  0.0186  0.0295 </r>
        <r>  0.0056  0.0213  0.0213  0.1087  0.0186  0.2515  0.0098  0.0186  0.0295 </r>
       </set>
       <set comment="band 7">
        <r>  0.0000  0.0009  0.0009  0.0000  0.0427  0.0000  0.3036  0.0427  0.1012 </r>
        <r>  0.0000  0.0009  0.0009  0.0000  0.0427  0.0000  0.3036  0.0427  0.1012 </r>
       </set>
       <set comment="band 8">
        <r>  0.0000  0.0003  0.0003  0.0000  0.0283  0.0000  0.3261  0.0283  0.1087 </r>
        <r>  0.0000  0.0003  0.0003  0.0000  0.0283  0.0000  0.3261  0.0283  0.1087 </r>
       </set>
       <set comment="band 9">
        <r>  0.0006  0.0001  0.0001  0.0001  0.0100  0.0001  0.1181  0.0100  0.3543 </r>
        <r>  0.0006  0.0001  0.0001  0.0001  0.0100  0.0001  0.1181  0.0100  0.3543 </r>
       </set>
       <set comment="band 10">
        <r>  0.0007  0.0005  0.0005  0.0015  0.0160  0.0253  0.1083  0.0160  0.3250 </r>
        <r>  0.0007  0.0005  0.0005  0.0015  0.0160  0.0253  0.1083  0.0160  0.3250 </r>
       </set>
       <set comment="band 11">
        <r>  0.0358  0.0398  0.0398  0.0766  0.0878  0.1238  0.0011  0.0878  0.0032 </r>
        <r>  0.0358  0.0398  0.0398  0.0766  0.0878  0.1238  0.0011  0.0878  0.0032 </r>
       </set>
       <set comment="band 12">
        <r>  0.0197  0.0396  0.0396  0.1231  0.0635  0.1257  0.0056  0.0635  0.0167 </r>
        <r>  0.0197  0.0396  0.0396  0.1231  0.0635  0.1257  0.0056  0.0635  0.0167 </r>
       </set>
       <set comment="band 13">
        <r>  0.0000  0.1140  0.1140  0.0000  0.1153  0.0000  0.0331  0.1153  0.0110 </r>
        <r>  0.0000  0.1140  0.1140  0.0000  0.1153  0.0000  0.0331  0.1153  0.0110 </r>
       </set>
       <set comment="band 14">
        <r>  0.0000  0.1066  0.1066  0.0000  0.1230  0.0000  0.0282  0.1230  0.0094 </r>
        <r>  0.0000  0.1066  0.1066  0.0000  0.1230  0.0000  0.0282  0.1230  0.0094 </r>
       </set>
       <set comment="band 15">
        <r>  0.2397  0.0000  0.0000  0.0448  0.0460  0.0785  0.0000  0.0460  0.0000 </r>
        <r>  0.2397  0.0000  0.0000  0.0448  0.0460  0.0785  0.0000  0.0460  0.0000 </r>
       </set>
       <set comment="band 16">
        <r>  0.1321  0.0011  0.0011  0.1225  0.0483  0.1023  0.0013  0.0483  0.0038 </r>
        <r>  0.1321  0.0011  0.0011  0.1225  0.0483  0.1023  0.0013  0.0483  0.0038 </r>
       </set>
       <set comment="band 17">
        <r>  0.1841  0.0847  0.0847  0.0074  0.0125  0.0505  0.0013  0.0125  0.0038 </r>
        <r>  0.1841  0.0847  0.0847  0.0074  0.0125  0.0505  0.0013  0.0125  0.0038 </r>
       </set>
       <set comment="band 18">
        <r>  0.1091  0.0831  0.0831  0.0427  0.0348  0.0565  0.0004  0.0348  0.0012 </r>
        <r>  0.1091  0.0831  0.0831  0.0427  0.0348  0.0565  0.0004  0.0348  0.0012 </r>
       </set>
       <set comment="band 19">
        <r>  0.0000  0.0088  0.0088  0.0000  0.0479  0.0000  0.0690  0.0479  0.0230 </r>
        <r>  0.0000  0.0088  0.0088  0.0000  0.0479  0.0000  0.0690  0.0479  0.0230 </r>
       </set>
       <set comment="band 20">
        <r>  0.0000  0.0028  0.0028  0.0000  0.0373  0.0000  0.0226  0.0373  0.0075 </r>
        <r>  0.0000  0.0028  0.0028  0.0000  0.0373  0.0000  0.0226  0.0373  0.0075 </r>
       </set>
       <set comment="band 21">
        <r>  0.0012  0.0053  0.0053  0.0090  0.0008  0.1053  0.0237  0.0008  0.0711 </r>
        <r>  0.0012  0.0053  0.0053  0.0090  0.0008  0.1053  0.0237  0.0008  0.0711 </r>
       </set>
       <set comment="band 22">
        <r>  0.0016  0.0026  0.0026  0.0031  0.0321  0.2058  0.0033  0.0321  0.0099 </r>
        <r>  0.0016  0.0026  0.0026  0.0031  0.0321  0.2058  0.0033  0.0321  0.0099 </r>
       </set>
       <set comment="band 23">
        <r>  0.0000  0.0114  0.0114  0.0000  0.0772  0.0000  0.0665  0.0772  0.0222 </r>
        <r>  0.0000  0.0114  0.0114  0.0000  0.0772  0.0000  0.0665  0.0772  0.0222 </r>
       </set>
       <set comment="band 24">
        <r>  0.0220  0.0128  0.0128  0.0053  0.0393  0.0594  0.0205  0.0393  0.0614 </r>
        <r>  0.0219  0.0127  0.0127  0.0054  0.0396  0.0590  0.0205  0.0397  0.0612 </r>
       </set>
      </set>
      <set comment="kpoint 55">
       <set comment="band 1">
        <r>  0.0201  0.0066  0.0405  0.0066  0.2245  0.0903  0.0136  0.0903  0.0000 </r>
        <r>  0.0201  0.0066  0.0405  0.0066  0.2245  0.0903  0.0136  0.0903  0.0000 </r>
       </set>
       <set comment="band 2">
        <r>  0.0210  0.0001  0.0824  0.0001  0.3478  0.0015  0.0343  0.0015  0.0000 </r>
        <r>  0.0210  0.0001  0.0824  0.0001  0.3478  0.0015  0.0343  0.0015  0.0000 </r>
       </set>
       <set comment="band 3">
        <r>  0.0000  0.0287  0.0000  0.0287  0.0000  0.2171  0.0000  0.2171  0.0037 </r>
        <r>  0.0000  0.0287  0.0000  0.0287  0.0000  0.2171  0.0000  0.2171  0.0037 </r>
       </set>
       <set comment="band 4">
        <r>  0.0023  0.0223  0.0442  0.0223  0.1200  0.1250  0.0292  0.1250  0.0000 </r>
        <r>  0.0023  0.0223  0.0442  0.0223  0.1200  0.1250  0.0292  0.1250  0.0000 </r>
       </set>
       <set comment="band 5">
        <r>  0.0102  0.0783  0.0019  0.0783  0.0000  0.1586  0.0007  0.1586  0.0000 </r>
        <r>  0.0102  0.0783  0.0019  0.0783  0.0000  0.1586  0.0007  0.1586  0.0000 </r>
       </set>
       <set comment="band 6">
        <r>  0.0000  0.0782  0.0000  0.0782  0.0000  0.1579  0.0000  0.1579  0.0144 </r>
        <r>  0.0000  0.0782  0.0000  0.0782  0.0000  0.1579  0.0000  0.1579  0.0144 </r>
       </set>
       <set comment="band 7">
        <r>  0.0004  0.0001  0.0007  0.0001  0.0481  0.0024  0.4390  0.0024  0.0000 </r>
        <r>  0.0004  0.0001  0.0007  0.0001  0.0481  0.0024  0.4390  0.0024  0.0000 </r>
       </set>
       <set comment="band 8">
        <r>  0.0004  0.0000  0.0005  0.0000  0.0416  0.0008  0.4492  0.0008  0.0000 </r>
        <r>  0.0004  0.0000  0.0005  0.0000  0.0416  0.0008  0.4492  0.0008  0.0000 </r>
       </set>
       <set comment="band 9">
        <r>  0.0000  0.0000  0.0000  0.0000  0.0000  0.0023  0.0000  0.0023  0.4893 </r>
        <r>  0.0000  0.0000  0.0000  0.0000  0.0000  0.0023  0.0000  0.0023  0.4893 </r>
       </set>
       <set comment="band 10">
        <r>  0.0000  0.0004  0.0000  0.0004  0.0000  0.0090  0.0000  0.0090  0.4751 </r>
        <r>  0.0000  0.0004  0.0000  0.0004  0.0000  0.0090  0.0000  0.0090  0.4751 </r>
       </set>
       <set comment="band 11">
        <r>  0.0247  0.0835  0.0220  0.0835  0.0476  0.1159  0.0009  0.1159  0.0000 </r>
        <r>  0.0247  0.0835  0.0220  0.0835  0.0476  0.1159  0.0009  0.1159  0.0000 </r>
       </set>
       <set comment="band 12">
        <r>  0.0000  0.1142  0.0000  0.1142  0.0000  0.1288  0.0000  0.1288  0.0072 </r>
        <r>  0.0000  0.1142  0.0000  0.1142  0.0000  0.1288  0.0000  0.1288  0.0072 </r>
       </set>
       <set comment="band 13">
        <r>  0.0773  0.0099  0.1310  0.0099  0.2347  0.0049  0.0252  0.0049  0.0000 </r>
        <r>  0.0773  0.0099  0.1310  0.0099  0.2347  0.0049  0.0252  0.0049  0.0000 </r>
       </set>
       <set comment="band 14">
        <r>  0.0741  0.0279  0.1005  0.0279  0.2043  0.0186  0.0213  0.0186  0.0000 </r>
        <r>  0.0741  0.0279  0.1005  0.0279  0.2043  0.0186  0.0213  0.0186  0.0000 </r>
       </set>
       <set comment="band 15">
        <r>  0.1402  0.0539  0.0127  0.0539  0.0025  0.0986  0.0019  0.0986  0.0000 </r>
        <r>  0.1402  0.0539  0.0127  0.0539  0.0025  0.0986  0.0019  0.0986  0.0000 </r>
       </set>
       <set comment="band 16">
        <r>  0.0000  0.1004  0.0000  0.1004  0.0000  0.1352  0.0000  0.1352  0.0038 </r>
        <r>  0.0000  0.1004  0.0000  0.1004  0.0000  0.1352  0.0000  0.1352  0.0038 </r>
       </set>
       <set comment="band 17">
        <r>  0.2832  0.0033  0.1187  0.0033  0.0173  0.0014  0.0047  0.0014  0.0000 </r>
        <r>  0.2832  0.0033  0.1187  0.0033  0.0173  0.0014  0.0047  0.0014  0.0000 </r>
       </set>
       <set comment="band 18">
        <r>  0.1707  0.0385  0.0989  0.0385  0.0281  0.0335  0.0023  0.0335  0.0000 </r>
        <r>  0.1707  0.0385  0.0989  0.0385  0.0281  0.0335  0.0023  0.0335  0.0000 </r>
       </set>
       <set comment="band 19">
        <r>  0.0003  0.0009  0.0056  0.0009  0.0125  0.0623  0.0363  0.0623  0.0000 </r>
        <r>  0.0003  0.0009  0.0056  0.0009  0.0125  0.0623  0.0363  0.0623  0.0000 </r>
       </set>
       <set comment="band 20">
        <r>  0.0000  0.0004  0.0000  0.0004  0.0000  0.0636  0.0000  0.0636  0.0018 </r>
        <r>  0.0000  0.0004  0.0000  0.0004  0.0000  0.0636  0.0000  0.0636  0.0018 </r>
       </set>
       <set comment="band 21">
        <r>  0.0000  0.0094  0.0000  0.0094  0.0000  0.0320  0.0000  0.0320  0.0623 </r>
        <r>  0.0000  0.0094  0.0000  0.0094  0.0000  0.0320  0.0000  0.0320  0.0623 </r>
       </set>
       <set comment="band 22">
        <r>  0.0000  0.0101  0.0030  0.0101  0.0602  0.0438  0.0274  0.0438  0.0000 </r>
        <r>  0.0000  0.0101  0.0030  0.0101  0.0602  0.0438  0.0274  0.0438  0.0000 </r>
       </set>
       <set comment="band 23">
        <r>  0.0000  0.0000  0.0000  0.0000  0.0000  0.0707  0.0000  0.0707  0.0185 </r>
        <r>  0.0000  0.0000  0.0000  0.0000  0.0000  0.0707  0.0000  0.0707  0.0185 </r>
       </set>
       <set comment="band 24">
        <r>  0.0146  0.0028  0.0399  0.0028  0.0717  0.0006  0.1626  0.0006  0.0000 </r>
        <r>  0.0149  0.0028  0.0411  0.0028  0.0692  0.0004  0.1677  0.0004  0.0000 </r>
       </set>
      </set>
      <set comment="kpoint 56">
       <set comment="band 1">
        <r>  0.0064  0.0232  0.0232  0.0232  0.1393  0.1393  0.0000  0.1393  0.0000 </r>
        <r>  0.0064  0.0232  0.0232  0.0232  0.1393  0.1393  0.0000  0.1393  0.0000 </r>
       </set>
       <set comment="band 2">
        <r>  0.0000  0.0457  0.0044  0.0364  0.0202  0.1685  0.0004  0.2120  0.0053 </r>
        <r>  0.0000  0.0457  0.0044  0.0364  0.0202  0.1685  0.0004  0.2120  0.0053 </r>
       </set>
       <set comment="band 3">
        <r>  0.0000  0.0119  0.0533  0.0213  0.2469  0.0986  0.0053  0.0551  0.0004 </r>
        <r>  0.0000  0.0119  0.0533  0.0213  0.2469  0.0986  0.0053  0.0551  0.0004 </r>
       </set>
       <set comment="band 4">
        <r>  0.0000  0.0139  0.0745  0.0313  0.2249  0.0946  0.0082  0.0420  0.0006 </r>
        <r>  0.0000  0.0139  0.0745  0.0313  0.2249  0.0946  0.0082  0.0420  0.0006 </r>
       </set>
       <set comment="band 5">
        <r>  0.0000  0.0659  0.0053  0.0485  0.0161  0.1464  0.0006  0.1990  0.0082 </r>
        <r>  0.0000  0.0659  0.0053  0.0485  0.0161  0.1464  0.0006  0.1990  0.0082 </r>
       </set>
       <set comment="band 6">
        <r>  0.0096  0.0453  0.0453  0.0453  0.1144  0.1144  0.0000  0.1144  0.0000 </r>
        <r>  0.0096  0.0453  0.0453  0.0453  0.1144  0.1144  0.0000  0.1144  0.0000 </r>
       </set>
       <set comment="band 7">
        <r>  0.0000  0.0000  0.0001  0.0001  0.0065  0.0041  0.4235  0.0005  0.0592 </r>
        <r>  0.0000  0.0000  0.0001  0.0001  0.0065  0.0041  0.4235  0.0005  0.0592 </r>
       </set>
       <set comment="band 8">
        <r>  0.0000  0.0001  0.0000  0.0001  0.0009  0.0033  0.0592  0.0069  0.4235 </r>
        <r>  0.0000  0.0001  0.0000  0.0001  0.0009  0.0033  0.0592  0.0069  0.4235 </r>
       </set>
       <set comment="band 9">
        <r>  0.0000  0.0000  0.0000  0.0000  0.0042  0.0003  0.4345  0.0026  0.0524 </r>
        <r>  0.0000  0.0000  0.0000  0.0000  0.0042  0.0003  0.4345  0.0026  0.0524 </r>
       </set>
       <set comment="band 10">
        <r>  0.0000  0.0000  0.0000  0.0000  0.0005  0.0044  0.0524  0.0021  0.4345 </r>
        <r>  0.0000  0.0000  0.0000  0.0000  0.0005  0.0044  0.0524  0.0021  0.4345 </r>
       </set>
       <set comment="band 11">
        <r>  0.0236  0.0667  0.0667  0.0667  0.0902  0.0902  0.0000  0.0902  0.0000 </r>
        <r>  0.0236  0.0667  0.0667  0.0667  0.0902  0.0902  0.0000  0.0902  0.0000 </r>
       </set>
       <set comment="band 12">
        <r>  0.0000  0.0740  0.0114  0.1415  0.0132  0.1636  0.0004  0.0855  0.0051 </r>
        <r>  0.0000  0.0740  0.0114  0.1415  0.0132  0.1636  0.0004  0.0855  0.0051 </r>
       </set>
       <set comment="band 13">
        <r>  0.0000  0.0773  0.1399  0.0098  0.1617  0.0113  0.0051  0.0894  0.0004 </r>
        <r>  0.0000  0.0773  0.1399  0.0098  0.1617  0.0113  0.0051  0.0894  0.0004 </r>
       </set>
       <set comment="band 14">
        <r>  0.0000  0.1110  0.0007  0.1054  0.0009  0.1309  0.0000  0.1379  0.0044 </r>
        <r>  0.0000  0.1110  0.0007  0.1054  0.0009  0.1309  0.0000  0.1379  0.0044 </r>
       </set>
       <set comment="band 15">
        <r>  0.0000  0.0337  0.1440  0.0394  0.1789  0.0489  0.0044  0.0419  0.0000 </r>
        <r>  0.0000  0.0337  0.1440  0.0394  0.1789  0.0489  0.0044  0.0419  0.0000 </r>
       </set>
       <set comment="band 16">
        <r>  0.1337  0.0387  0.0387  0.0387  0.0749  0.0749  0.0000  0.0749  0.0000 </r>
        <r>  0.1337  0.0387  0.0387  0.0387  0.0749  0.0749  0.0000  0.0749  0.0000 </r>
       </set>
       <set comment="band 17">
        <r>  0.3852  0.0119  0.0119  0.0119  0.0005  0.0005  0.0000  0.0005  0.0000 </r>
        <r>  0.3852  0.0119  0.0119  0.0119  0.0005  0.0005  0.0000  0.0005  0.0000 </r>
       </set>
       <set comment="band 18">
        <r>  0.2774  0.0338  0.0338  0.0338  0.0190  0.0190  0.0000  0.0190  0.0000 </r>
        <r>  0.2774  0.0338  0.0338  0.0338  0.0190  0.0190  0.0000  0.0190  0.0000 </r>
       </set>
       <set comment="band 19">
        <r>  0.0000  0.0000  0.0000  0.0000  0.0000  0.0000  0.0000  0.0000  0.0000 </r>
        <r>  0.0000  0.0000  0.0000  0.0000  0.0000  0.0000  0.0000  0.0000  0.0000 </r>
       </set>
       <set comment="band 20">
        <r>  0.0000  0.0047  0.0035  0.0001  0.0278  0.0011  0.0163  0.0374  0.0096 </r>
        <r>  0.0000  0.0047  0.0035  0.0001  0.0278  0.0011  0.0163  0.0374  0.0096 </r>
       </set>
       <set comment="band 21">
        <r>  0.0000  0.0009  0.0021  0.0055  0.0164  0.0431  0.0096  0.0069  0.0163 </r>
        <r>  0.0000  0.0009  0.0021  0.0055  0.0164  0.0431  0.0096  0.0069  0.0163 </r>
       </set>
       <set comment="band 22">
        <r>  0.0000  0.0006  0.0047  0.0023  0.1103  0.0545  0.0025  0.0145  0.0002 </r>
        <r>  0.0000  0.0006  0.0047  0.0023  0.1103  0.0545  0.0025  0.0145  0.0002 </r>
       </set>
       <set comment="band 23">
        <r>  0.0000  0.0044  0.0004  0.0028  0.0092  0.0650  0.0002  0.1051  0.0025 </r>
        <r>  0.0000  0.0044  0.0004  0.0027  0.0092  0.0650  0.0002  0.1050  0.0025 </r>
       </set>
       <set comment="band 24">
        <r>  0.0041  0.0135  0.0134  0.0134  0.0347  0.0348  0.0000  0.0350  0.0000 </r>
        <r>  0.0042  0.0136  0.0136  0.0136  0.0333  0.0334  0.0000  0.0333  0.0000 </r>
       </set>
      </set>
     </set>
    </set>
   </array>
  </projected>
 </calculation>
 <structure name="finalpos" >
  <crystal>
   <varray name="basis" >
    <v>       2.83552905       0.00000000       0.00000000 </v>
    <v>       0.00000000       2.83552905       0.00000000 </v>
    <v>       0.00000000       0.00000000       2.83552905 </v>
   </varray>
   <i name="volume">     22.79829149 </i>
   <varray name="rec_basis" >
    <v>       0.35266787       0.00000000       0.00000000 </v>
    <v>       0.00000000       0.35266787       0.00000000 </v>
    <v>       0.00000000       0.00000000       0.35266787 </v>
   </varray>
  </crystal>
  <varray name="positions" >
   <v>       0.00000000       0.00000000       0.00000000 </v>
   <v>       0.50000000       0.50000000       0.50000000 </v>
  </varray>
 </structure>
</modeling>
