       N       E                     dE             d eps       ncg     rms          rms(c)
DAV:   1    -0.725618061597E+01   -0.72562E+01   -0.40533E+03  2688   0.328E+02
DAV:   2    -0.150325217494E+02   -0.77763E+01   -0.76724E+01  3888   0.267E+01
DAV:   3    -0.150672157631E+02   -0.34694E-01   -0.34691E-01  3624   0.222E+00
DAV:   4    -0.150672708340E+02   -0.55071E-04   -0.55071E-04  4632   0.816E-02
DAV:   5    -0.150672708482E+02   -0.14115E-07   -0.13876E-07  3576   0.892E-04    0.261E+00
DAV:   6    -0.150158357473E+02    0.51435E-01   -0.64181E-03  4080   0.253E-01    0.152E+00
DAV:   7    -0.149782579796E+02    0.37578E-01   -0.18377E-02  3648   0.401E-01    0.266E-01
DAV:   8    -0.149781470810E+02    0.11090E-03   -0.73581E-05  4560   0.333E-02    0.326E-02
DAV:   9    -0.149781388212E+02    0.82598E-05   -0.36071E-06  2616   0.567E-03
   1 F= -.14978139E+02 E0= -.14976933E+02  d E =-.241215E-02
