       N       E                     dE             d eps       ncg     rms          rms(c)
DAV:   1    -0.113739884756E+02   -0.11374E+02   -0.10875E-07  8736   0.983E-04    0.181E-04
DAV:   2    -0.113739884505E+02    0.25034E-07   -0.79870E-09  6456   0.248E-04
   1 F= -.11373988E+02 E0= -.11372201E+02  d E =-.113740E+02
       N       E                     dE             d eps       ncg     rms          rms(c)
DAV:   1    -0.140198583154E+02   -0.26459E+01   -0.30199E+01  9120   0.135E+01    0.378E+00
DAV:   2    -0.138158042337E+02    0.20405E+00   -0.16474E-01 10344   0.167E+00    0.175E+00
DAV:   3    -0.136829752551E+02    0.13283E+00   -0.67918E-02  9768   0.625E-01    0.647E-01
DAV:   4    -0.136692226821E+02    0.13753E-01   -0.11597E-02 10704   0.247E-01    0.329E-01
DAV:   5    -0.136691735183E+02    0.49164E-04   -0.78440E-05 11808   0.410E-02    0.202E-02
DAV:   6    -0.136691738182E+02   -0.29992E-06   -0.12964E-06  8112   0.285E-03
   2 F= -.13669174E+02 E0= -.13667414E+02  d E =-.229519E+01
       N       E                     dE             d eps       ncg     rms          rms(c)
DAV:   1     0.354509446352E+01    0.17214E+02   -0.35071E+02 11088   0.649E+01    0.155E+01
DAV:   2     0.484984114156E+01    0.13047E+01   -0.96234E-01 11976   0.537E+00    0.744E+00
DAV:   3     0.579721043320E+01    0.94737E+00   -0.17953E-01 10848   0.169E+00    0.264E+00
DAV:   4     0.582446753309E+01    0.27257E-01   -0.80615E-03 12528   0.339E-01    0.695E-01
DAV:   5     0.582452813482E+01    0.60602E-04   -0.28160E-05 10704   0.292E-02    0.107E-02
DAV:   6     0.582452658982E+01   -0.15450E-05   -0.25352E-07 10392   0.255E-03
   3 F= 0.58245266E+01 E0= 0.58253935E+01  d E =0.171985E+02
       N       E                     dE             d eps       ncg     rms          rms(c)
DAV:   1    -0.157035417550E+02   -0.21528E+02   -0.11129E+02 12336   0.235E+01    0.865E+00
DAV:   2    -0.148051913966E+02    0.89835E+00   -0.57063E-01  8880   0.277E+00    0.518E+00
DAV:   3    -0.142224390299E+02    0.58275E+00   -0.14009E-01  9912   0.919E-01    0.806E-01
DAV:   4    -0.142214792186E+02    0.95981E-03   -0.13541E-03 12312   0.148E-01    0.529E-01
DAV:   5    -0.142206945639E+02    0.78465E-03   -0.99936E-04  9552   0.756E-02    0.486E-02
DAV:   6    -0.142206814808E+02    0.13083E-04   -0.72883E-06 11136   0.114E-02    0.129E-02
DAV:   7    -0.142206721735E+02    0.93073E-05   -0.13787E-06  5400   0.343E-03
   4 F= -.14220672E+02 E0= -.14219150E+02  d E =-.284668E+01
       N       E                     dE             d eps       ncg     rms          rms(c)
DAV:   1    -0.143191965351E+02   -0.98515E-01   -0.56442E+01 10272   0.217E+01    0.621E+00
DAV:   2    -0.141116315424E+02    0.20756E+00   -0.23279E-01 10368   0.230E+00    0.231E+00
DAV:   3    -0.139756517796E+02    0.13598E+00   -0.22617E-02 10752   0.451E-01    0.931E-01
DAV:   4    -0.139500077170E+02    0.25644E-01   -0.96885E-03 10680   0.281E-01    0.500E-01
DAV:   5    -0.139499992647E+02    0.84524E-05   -0.38200E-05 11976   0.304E-02
   5 F= -.13949999E+02 E0= -.13949522E+02  d E =-.257601E+01
       N       E                     dE             d eps       ncg     rms          rms(c)
DAV:   1    -0.150160504602E+02   -0.10660E+01   -0.15538E+01 10296   0.996E+00    0.306E+00
DAV:   2    -0.149407239391E+02    0.75327E-01   -0.10305E-01  9456   0.132E+00    0.135E+00
DAV:   3    -0.148921401942E+02    0.48584E-01   -0.13160E-02 10944   0.306E-01    0.332E-01
DAV:   4    -0.148880754675E+02    0.40647E-02   -0.15441E-03 10800   0.106E-01    0.205E-01
DAV:   5    -0.148880662346E+02    0.92329E-05   -0.22366E-05 11592   0.157E-02
   6 F= -.14888066E+02 E0= -.14887086E+02  d E =-.351408E+01
       N       E                     dE             d eps       ncg     rms          rms(c)
DAV:   1    -0.150012396954E+02   -0.11316E+00   -0.22835E+00 10200   0.402E+00    0.122E+00
DAV:   2    -0.149916360836E+02    0.96036E-02   -0.12626E-02  9840   0.487E-01    0.469E-01
DAV:   3    -0.149855777535E+02    0.60583E-02   -0.13836E-03 11208   0.103E-01    0.180E-01
DAV:   4    -0.149845136333E+02    0.10641E-02   -0.48149E-04 10104   0.594E-02    0.868E-02
DAV:   5    -0.149845153488E+02   -0.17155E-05   -0.27869E-06 10656   0.725E-03
   7 F= -.14984515E+02 E0= -.14983787E+02  d E =-.361053E+01
       N       E                     dE             d eps       ncg     rms          rms(c)
DAV:   1    -0.149916144235E+02   -0.71008E-02   -0.98578E-02 10080   0.827E-01    0.254E-01
DAV:   2    -0.149911780997E+02    0.43632E-03   -0.58665E-04  9816   0.103E-01    0.992E-02
DAV:   3    -0.149909000034E+02    0.27810E-03   -0.61268E-05 11064   0.216E-02    0.352E-02
DAV:   4    -0.149908515577E+02    0.48446E-04   -0.18032E-05  9840   0.115E-02    0.175E-02
DAV:   5    -0.149908511169E+02    0.44078E-06   -0.11809E-07  4320   0.152E-03
   8 F= -.14990851E+02 E0= -.14989938E+02  d E =-.361686E+01
       N       E                     dE             d eps       ncg     rms          rms(c)
DAV:   1    -0.149909740907E+02   -0.12253E-03   -0.13076E-03 10056   0.952E-02    0.296E-02
DAV:   2    -0.149909694196E+02    0.46711E-05   -0.76709E-06  9240   0.118E-02
   9 F= -.14990969E+02 E0= -.14990076E+02  d E =-.361698E+01
