<?xml version="1.0" encoding="ISO-8859-1"?>
<modeling>
 <generator>
  <i name="program" type="string">vasp </i>
  <i name="version" type="string">6.3.0  </i>
  <i name="subversion" type="string">20Jan22 (build Feb 10 2022 15:15:41) complex                          parallel </i>
  <i name="platform" type="string">LinuxIFC </i>
  <i name="date" type="string">2023 09 09 </i>
  <i name="time" type="string">15:45:59 </i>
 </generator>
 <incar>
  <i type="int" name="IBRION">     2</i>
  <i name="EDIFF">      0.00001000</i>
  <i name="EDIFFG">     -0.01000000</i>
  <i type="int" name="NSW">   100</i>
  <i type="int" name="ISIF">     3</i>
  <i name="ENCUT">    400.00000000</i>
  <i type="int" name="ISMEAR">     0</i>
  <i name="SIGMA">      0.05000000</i>
 </incar>
 <primitive_cell>
  <structure name="primitive_cell" >
   <crystal>
    <varray name="basis" >
     <v>       2.50000000      -2.50000000       0.00000000 </v>
     <v>       2.50000000       0.00000000       2.50000000 </v>
     <v>       0.00000000      -2.50000000       2.50000000 </v>
    </varray>
    <i name="volume">     31.25000000 </i>
    <varray name="rec_basis" >
     <v>       0.20000000      -0.20000000      -0.20000000 </v>
     <v>       0.20000000       0.20000000       0.20000000 </v>
     <v>      -0.20000000      -0.20000000       0.20000000 </v>
    </varray>
   </crystal>
   <varray name="positions" >
    <v>       0.00000000       0.00000000       0.00000000 </v>
   </varray>
  </structure>
  <varray name="primitive_index" >
   <v type="int" >        1 </v>
  </varray>
 </primitive_cell>
 <kpoints>
  <generation param="Gamma">
   <v type="int" name="divisions">      16       16       16 </v>
   <v name="usershift">      0.00000000       0.00000000       0.00000000 </v>
   <v name="genvec1">      0.06250000       0.00000000       0.00000000 </v>
   <v name="genvec2">      0.00000000       0.06250000       0.00000000 </v>
   <v name="genvec3">      0.00000000       0.00000000       0.06250000 </v>
   <v name="shift">      0.00000000       0.00000000       0.00000000 </v>
  </generation>
  <varray name="kpointlist" >
   <v>       0.00000000       0.00000000       0.00000000 </v>
   <v>       0.06250000       0.00000000       0.00000000 </v>
   <v>       0.12500000       0.00000000       0.00000000 </v>
   <v>       0.18750000       0.00000000       0.00000000 </v>
   <v>       0.25000000       0.00000000       0.00000000 </v>
   <v>       0.31250000       0.00000000       0.00000000 </v>
   <v>       0.37500000       0.00000000       0.00000000 </v>
   <v>       0.43750000       0.00000000       0.00000000 </v>
   <v>       0.50000000       0.00000000       0.00000000 </v>
   <v>       0.06250000       0.06250000       0.00000000 </v>
   <v>       0.12500000       0.06250000       0.00000000 </v>
   <v>       0.18750000       0.06250000       0.00000000 </v>
   <v>       0.25000000       0.06250000       0.00000000 </v>
   <v>       0.31250000       0.06250000       0.00000000 </v>
   <v>       0.37500000       0.06250000       0.00000000 </v>
   <v>       0.43750000       0.06250000       0.00000000 </v>
   <v>       0.50000000       0.06250000       0.00000000 </v>
   <v>       0.12500000       0.12500000       0.00000000 </v>
   <v>       0.18750000       0.12500000       0.00000000 </v>
   <v>       0.25000000       0.12500000       0.00000000 </v>
   <v>       0.31250000       0.12500000       0.00000000 </v>
   <v>       0.37500000       0.12500000       0.00000000 </v>
   <v>       0.43750000       0.12500000       0.00000000 </v>
   <v>       0.50000000       0.12500000       0.00000000 </v>
   <v>       0.18750000       0.18750000       0.00000000 </v>
   <v>       0.25000000       0.18750000       0.00000000 </v>
   <v>       0.31250000       0.18750000       0.00000000 </v>
   <v>       0.37500000       0.18750000       0.00000000 </v>
   <v>       0.43750000       0.18750000       0.00000000 </v>
   <v>       0.50000000       0.18750000       0.00000000 </v>
   <v>       0.25000000       0.25000000       0.00000000 </v>
   <v>       0.31250000       0.25000000       0.00000000 </v>
   <v>       0.37500000       0.25000000       0.00000000 </v>
   <v>       0.43750000       0.25000000       0.00000000 </v>
   <v>       0.50000000       0.25000000       0.00000000 </v>
   <v>       0.31250000       0.31250000       0.00000000 </v>
   <v>       0.37500000       0.31250000       0.00000000 </v>
   <v>       0.43750000       0.31250000       0.00000000 </v>
   <v>       0.50000000       0.31250000       0.00000000 </v>
   <v>       0.37500000       0.37500000       0.00000000 </v>
   <v>       0.43750000       0.37500000       0.00000000 </v>
   <v>       0.50000000       0.37500000       0.00000000 </v>
   <v>       0.43750000       0.43750000       0.00000000 </v>
   <v>       0.50000000       0.43750000       0.00000000 </v>
   <v>       0.50000000       0.50000000       0.00000000 </v>
   <v>       0.06250000       0.06250000       0.06250000 </v>
   <v>       0.12500000       0.06250000       0.06250000 </v>
   <v>       0.18750000       0.06250000       0.06250000 </v>
   <v>       0.25000000       0.06250000       0.06250000 </v>
   <v>       0.31250000       0.06250000       0.06250000 </v>
   <v>       0.37500000       0.06250000       0.06250000 </v>
   <v>       0.43750000       0.06250000       0.06250000 </v>
   <v>       0.50000000       0.06250000       0.06250000 </v>
   <v>       0.12500000       0.12500000       0.06250000 </v>
   <v>       0.18750000       0.12500000       0.06250000 </v>
   <v>       0.25000000       0.12500000       0.06250000 </v>
   <v>       0.31250000       0.12500000       0.06250000 </v>
   <v>       0.37500000       0.12500000       0.06250000 </v>
   <v>       0.43750000       0.12500000       0.06250000 </v>
   <v>       0.50000000       0.12500000       0.06250000 </v>
   <v>       0.18750000       0.18750000       0.06250000 </v>
   <v>       0.25000000       0.18750000       0.06250000 </v>
   <v>       0.31250000       0.18750000       0.06250000 </v>
   <v>       0.37500000       0.18750000       0.06250000 </v>
   <v>       0.43750000       0.18750000       0.06250000 </v>
   <v>       0.50000000       0.18750000       0.06250000 </v>
   <v>       0.25000000       0.25000000       0.06250000 </v>
   <v>       0.31250000       0.25000000       0.06250000 </v>
   <v>       0.37500000       0.25000000       0.06250000 </v>
   <v>       0.43750000       0.25000000       0.06250000 </v>
   <v>       0.50000000       0.25000000       0.06250000 </v>
   <v>       0.31250000       0.31250000       0.06250000 </v>
   <v>       0.37500000       0.31250000       0.06250000 </v>
   <v>       0.43750000       0.31250000       0.06250000 </v>
   <v>       0.50000000       0.31250000       0.06250000 </v>
   <v>       0.37500000       0.37500000       0.06250000 </v>
   <v>       0.43750000       0.37500000       0.06250000 </v>
   <v>       0.50000000       0.37500000       0.06250000 </v>
   <v>       0.43750000       0.43750000       0.06250000 </v>
   <v>       0.50000000       0.43750000       0.06250000 </v>
   <v>       0.50000000       0.50000000       0.06250000 </v>
   <v>       0.12500000       0.12500000       0.12500000 </v>
   <v>       0.18750000       0.12500000       0.12500000 </v>
   <v>       0.25000000       0.12500000       0.12500000 </v>
   <v>       0.31250000       0.12500000       0.12500000 </v>
   <v>       0.37500000       0.12500000       0.12500000 </v>
   <v>       0.43750000       0.12500000       0.12500000 </v>
   <v>       0.50000000       0.12500000       0.12500000 </v>
   <v>       0.18750000       0.18750000       0.12500000 </v>
   <v>       0.25000000       0.18750000       0.12500000 </v>
   <v>       0.31250000       0.18750000       0.12500000 </v>
   <v>       0.37500000       0.18750000       0.12500000 </v>
   <v>       0.43750000       0.18750000       0.12500000 </v>
   <v>       0.50000000       0.18750000       0.12500000 </v>
   <v>       0.25000000       0.25000000       0.12500000 </v>
   <v>       0.31250000       0.25000000       0.12500000 </v>
   <v>       0.37500000       0.25000000       0.12500000 </v>
   <v>       0.43750000       0.25000000       0.12500000 </v>
   <v>       0.50000000       0.25000000       0.12500000 </v>
   <v>       0.31250000       0.31250000       0.12500000 </v>
   <v>       0.37500000       0.31250000       0.12500000 </v>
   <v>       0.43750000       0.31250000       0.12500000 </v>
   <v>       0.50000000       0.31250000       0.12500000 </v>
   <v>       0.37500000       0.37500000       0.12500000 </v>
   <v>       0.43750000       0.37500000       0.12500000 </v>
   <v>       0.50000000       0.37500000       0.12500000 </v>
   <v>       0.43750000       0.43750000       0.12500000 </v>
   <v>       0.50000000       0.43750000       0.12500000 </v>
   <v>       0.50000000       0.50000000       0.12500000 </v>
   <v>       0.18750000       0.18750000       0.18750000 </v>
   <v>       0.25000000       0.18750000       0.18750000 </v>
   <v>       0.31250000       0.18750000       0.18750000 </v>
   <v>       0.37500000       0.18750000       0.18750000 </v>
   <v>       0.43750000       0.18750000       0.18750000 </v>
   <v>       0.50000000       0.18750000       0.18750000 </v>
   <v>       0.25000000       0.25000000       0.18750000 </v>
   <v>       0.31250000       0.25000000       0.18750000 </v>
   <v>       0.37500000       0.25000000       0.18750000 </v>
   <v>       0.43750000       0.25000000       0.18750000 </v>
   <v>       0.50000000       0.25000000       0.18750000 </v>
   <v>       0.31250000       0.31250000       0.18750000 </v>
   <v>       0.37500000       0.31250000       0.18750000 </v>
   <v>       0.43750000       0.31250000       0.18750000 </v>
   <v>       0.50000000       0.31250000       0.18750000 </v>
   <v>       0.37500000       0.37500000       0.18750000 </v>
   <v>       0.43750000       0.37500000       0.18750000 </v>
   <v>       0.50000000       0.37500000       0.18750000 </v>
   <v>       0.43750000       0.43750000       0.18750000 </v>
   <v>       0.50000000       0.43750000       0.18750000 </v>
   <v>       0.50000000       0.50000000       0.18750000 </v>
   <v>       0.25000000       0.25000000       0.25000000 </v>
   <v>       0.31250000       0.25000000       0.25000000 </v>
   <v>       0.37500000       0.25000000       0.25000000 </v>
   <v>       0.43750000       0.25000000       0.25000000 </v>
   <v>       0.50000000       0.25000000       0.25000000 </v>
   <v>       0.31250000       0.31250000       0.25000000 </v>
   <v>       0.37500000       0.31250000       0.25000000 </v>
   <v>       0.43750000       0.31250000       0.25000000 </v>
   <v>       0.50000000       0.31250000       0.25000000 </v>
   <v>       0.37500000       0.37500000       0.25000000 </v>
   <v>       0.43750000       0.37500000       0.25000000 </v>
   <v>       0.50000000       0.37500000       0.25000000 </v>
   <v>       0.43750000       0.43750000       0.25000000 </v>
   <v>       0.50000000       0.43750000       0.25000000 </v>
   <v>       0.50000000       0.50000000       0.25000000 </v>
   <v>       0.31250000       0.31250000       0.31250000 </v>
   <v>       0.37500000       0.31250000       0.31250000 </v>
   <v>       0.43750000       0.31250000       0.31250000 </v>
   <v>       0.50000000       0.31250000       0.31250000 </v>
   <v>       0.37500000       0.37500000       0.31250000 </v>
   <v>       0.43750000       0.37500000       0.31250000 </v>
   <v>       0.50000000       0.37500000       0.31250000 </v>
   <v>       0.43750000       0.43750000       0.31250000 </v>
   <v>       0.50000000       0.43750000       0.31250000 </v>
   <v>       0.50000000       0.50000000       0.31250000 </v>
   <v>       0.37500000       0.37500000       0.37500000 </v>
   <v>       0.43750000       0.37500000       0.37500000 </v>
   <v>       0.50000000       0.37500000       0.37500000 </v>
   <v>       0.43750000       0.43750000       0.37500000 </v>
   <v>       0.50000000       0.43750000       0.37500000 </v>
   <v>       0.50000000       0.50000000       0.37500000 </v>
   <v>       0.43750000       0.43750000       0.43750000 </v>
   <v>       0.50000000       0.43750000       0.43750000 </v>
   <v>       0.50000000       0.50000000       0.43750000 </v>
   <v>       0.50000000       0.50000000       0.50000000 </v>
  </varray>
  <varray name="weights" >
   <v>       0.00024414 </v>
   <v>       0.00146484 </v>
   <v>       0.00146484 </v>
   <v>       0.00146484 </v>
   <v>       0.00146484 </v>
   <v>       0.00146484 </v>
   <v>       0.00146484 </v>
   <v>       0.00146484 </v>
   <v>       0.00073242 </v>
   <v>       0.00292969 </v>
   <v>       0.00585938 </v>
   <v>       0.00585938 </v>
   <v>       0.00585938 </v>
   <v>       0.00585938 </v>
   <v>       0.00585938 </v>
   <v>       0.00585938 </v>
   <v>       0.00292969 </v>
   <v>       0.00292969 </v>
   <v>       0.00585938 </v>
   <v>       0.00585938 </v>
   <v>       0.00585938 </v>
   <v>       0.00585938 </v>
   <v>       0.00585938 </v>
   <v>       0.00292969 </v>
   <v>       0.00292969 </v>
   <v>       0.00585938 </v>
   <v>       0.00585938 </v>
   <v>       0.00585938 </v>
   <v>       0.00585938 </v>
   <v>       0.00292969 </v>
   <v>       0.00292969 </v>
   <v>       0.00585938 </v>
   <v>       0.00585938 </v>
   <v>       0.00585938 </v>
   <v>       0.00292969 </v>
   <v>       0.00292969 </v>
   <v>       0.00585938 </v>
   <v>       0.00585938 </v>
   <v>       0.00292969 </v>
   <v>       0.00292969 </v>
   <v>       0.00585938 </v>
   <v>       0.00292969 </v>
   <v>       0.00292969 </v>
   <v>       0.00292969 </v>
   <v>       0.00073242 </v>
   <v>       0.00195312 </v>
   <v>       0.00585938 </v>
   <v>       0.00585938 </v>
   <v>       0.00585938 </v>
   <v>       0.00585938 </v>
   <v>       0.00585938 </v>
   <v>       0.00585938 </v>
   <v>       0.00292969 </v>
   <v>       0.00585938 </v>
   <v>       0.01171875 </v>
   <v>       0.01171875 </v>
   <v>       0.01171875 </v>
   <v>       0.01171875 </v>
   <v>       0.01171875 </v>
   <v>       0.00585938 </v>
   <v>       0.00585938 </v>
   <v>       0.01171875 </v>
   <v>       0.01171875 </v>
   <v>       0.01171875 </v>
   <v>       0.01171875 </v>
   <v>       0.00585938 </v>
   <v>       0.00585938 </v>
   <v>       0.01171875 </v>
   <v>       0.01171875 </v>
   <v>       0.01171875 </v>
   <v>       0.00585938 </v>
   <v>       0.00585938 </v>
   <v>       0.01171875 </v>
   <v>       0.01171875 </v>
   <v>       0.00585938 </v>
   <v>       0.00585938 </v>
   <v>       0.01171875 </v>
   <v>       0.00585938 </v>
   <v>       0.00585938 </v>
   <v>       0.00585938 </v>
   <v>       0.00146484 </v>
   <v>       0.00195312 </v>
   <v>       0.00585938 </v>
   <v>       0.00585938 </v>
   <v>       0.00585938 </v>
   <v>       0.00585938 </v>
   <v>       0.00585938 </v>
   <v>       0.00292969 </v>
   <v>       0.00585938 </v>
   <v>       0.01171875 </v>
   <v>       0.01171875 </v>
   <v>       0.01171875 </v>
   <v>       0.01171875 </v>
   <v>       0.00585938 </v>
   <v>       0.00585938 </v>
   <v>       0.01171875 </v>
   <v>       0.01171875 </v>
   <v>       0.01171875 </v>
   <v>       0.00585938 </v>
   <v>       0.00585938 </v>
   <v>       0.01171875 </v>
   <v>       0.01171875 </v>
   <v>       0.00585938 </v>
   <v>       0.00585938 </v>
   <v>       0.01171875 </v>
   <v>       0.00585938 </v>
   <v>       0.00585938 </v>
   <v>       0.00585938 </v>
   <v>       0.00146484 </v>
   <v>       0.00195312 </v>
   <v>       0.00585938 </v>
   <v>       0.00585938 </v>
   <v>       0.00585938 </v>
   <v>       0.00585938 </v>
   <v>       0.00292969 </v>
   <v>       0.00585938 </v>
   <v>       0.01171875 </v>
   <v>       0.01171875 </v>
   <v>       0.01171875 </v>
   <v>       0.00585938 </v>
   <v>       0.00585938 </v>
   <v>       0.01171875 </v>
   <v>       0.01171875 </v>
   <v>       0.00585938 </v>
   <v>       0.00585938 </v>
   <v>       0.01171875 </v>
   <v>       0.00585938 </v>
   <v>       0.00585938 </v>
   <v>       0.00585938 </v>
   <v>       0.00146484 </v>
   <v>       0.00195312 </v>
   <v>       0.00585938 </v>
   <v>       0.00585938 </v>
   <v>       0.00585938 </v>
   <v>       0.00292969 </v>
   <v>       0.00585938 </v>
   <v>       0.01171875 </v>
   <v>       0.01171875 </v>
   <v>       0.00585938 </v>
   <v>       0.00585938 </v>
   <v>       0.01171875 </v>
   <v>       0.00585938 </v>
   <v>       0.00585938 </v>
   <v>       0.00585938 </v>
   <v>       0.00146484 </v>
   <v>       0.00195312 </v>
   <v>       0.00585938 </v>
   <v>       0.00585938 </v>
   <v>       0.00292969 </v>
   <v>       0.00585938 </v>
   <v>       0.01171875 </v>
   <v>       0.00585938 </v>
   <v>       0.00585938 </v>
   <v>       0.00585938 </v>
   <v>       0.00146484 </v>
   <v>       0.00195312 </v>
   <v>       0.00585938 </v>
   <v>       0.00292969 </v>
   <v>       0.00585938 </v>
   <v>       0.00585938 </v>
   <v>       0.00146484 </v>
   <v>       0.00195312 </v>
   <v>       0.00292969 </v>
   <v>       0.00146484 </v>
   <v>       0.00024414 </v>
  </varray>
 </kpoints>
 <parameters>
  <separator name="general" >
   <i type="string" name="SYSTEM">unknown system</i>
   <i type="logical" name="LCOMPAT"> F  </i>
  </separator>
  <separator name="electronic" >
   <i type="string" name="PREC">normal</i>
   <i name="ENMAX">    400.00000000</i>
   <i name="ENAUG">    291.05200000</i>
   <i name="EDIFF">      0.00001000</i>
   <i type="int" name="IALGO">    38</i>
   <i type="int" name="IWAVPR">    11</i>
   <i type="int" name="NBANDS">    24</i>
   <i type="int" name="NBANDSLOW">    -1</i>
   <i type="int" name="NBANDSHIGH">    -1</i>
   <i name="NELECT">     12.00000000</i>
   <i type="int" name="TURBO">     0</i>
   <i type="int" name="IRESTART">     0</i>
   <i type="int" name="NREBOOT">     0</i>
   <i type="int" name="NMIN">     0</i>
   <i name="EREF">      0.00000000</i>
   <separator name="electronic smearing" >
    <i type="int" name="ISMEAR">     0</i>
    <i name="SIGMA">      0.05000000</i>
    <i name="KSPACING">      0.50000000</i>
    <i type="logical" name="KGAMMA"> T  </i>
    <i type="logical" name="KBLOWUP"> T  </i>
   </separator>
   <separator name="electronic projectors" >
    <i type="logical" name="LREAL"> F  </i>
    <v name="ROPT">      0.00000000</v>
    <i type="int" name="LMAXPAW">  -100</i>
    <i type="int" name="LMAXMIX">     2</i>
    <i type="logical" name="NLSPLINE"> F  </i>
   </separator>
   <separator name="electronic startup" >
    <i type="int" name="ISTART">     1</i>
    <i type="int" name="ICHARG">     0</i>
    <i type="int" name="INIWAV">     1</i>
   </separator>
   <separator name="electronic spin" >
    <i type="int" name="ISPIN">     1</i>
    <i type="logical" name="LNONCOLLINEAR"> F  </i>
    <v name="MAGMOM">      1.00000000      1.00000000      1.00000000      1.00000000</v>
    <i name="NUPDOWN">     -1.00000000</i>
    <i type="logical" name="LSORBIT"> F  </i>
    <v name="SAXIS">      0.00000000      0.00000000      1.00000000</v>
    <i type="logical" name="LSPIRAL"> F  </i>
    <v name="QSPIRAL">      0.00000000      0.00000000      0.00000000</v>
    <i type="logical" name="LZEROZ"> F  </i>
   </separator>
   <separator name="electronic exchange-correlation" >
    <i type="logical" name="LASPH"> F  </i>
    <i type="logical" name="LMETAGGA"> F  </i>
   </separator>
   <separator name="electronic convergence" >
    <i type="int" name="NELM">    60</i>
    <i type="int" name="NELMDL">     0</i>
    <i type="int" name="NELMIN">     2</i>
    <i name="ENINI">    400.00000000</i>
    <separator name="electronic convergence detail" >
     <i type="logical" name="LDIAG"> T  </i>
     <i type="logical" name="LSUBROT"> F  </i>
     <i name="WEIMIN">      0.00100000</i>
     <i name="EBREAK">      0.00000010</i>
     <i name="DEPER">      0.30000000</i>
     <i type="int" name="NRMM">     4</i>
     <i name="TIME">      0.40000000</i>
    </separator>
   </separator>
   <separator name="electronic mixer" >
    <i name="AMIX">      0.40000000</i>
    <i name="BMIX">      1.00000000</i>
    <i name="AMIN">      0.10000000</i>
    <i name="AMIX_MAG">      1.60000000</i>
    <i name="BMIX_MAG">      1.00000000</i>
    <separator name="electronic mixer details" >
     <i type="int" name="IMIX">     4</i>
     <i type="logical" name="MIXFIRST"> F  </i>
     <i type="int" name="MAXMIX">   -45</i>
     <i name="WC">    100.00000000</i>
     <i type="int" name="INIMIX">     1</i>
     <i type="int" name="MIXPRE">     1</i>
     <i type="int" name="MREMOVE">     5</i>
    </separator>
   </separator>
   <separator name="electronic dipolcorrection" >
    <i type="logical" name="LDIPOL"> F  </i>
    <i type="logical" name="LMONO"> F  </i>
    <i type="int" name="IDIPOL">     0</i>
    <i name="EPSILON">      1.00000000</i>
    <v name="DIPOL">   -100.00000000   -100.00000000   -100.00000000</v>
    <i name="EFIELD">      0.00000000</i>
   </separator>
  </separator>
  <separator name="grids" >
   <i type="int" name="NGX">    24</i>
   <i type="int" name="NGY">    24</i>
   <i type="int" name="NGZ">    24</i>
   <i type="int" name="NGXF">    48</i>
   <i type="int" name="NGYF">    48</i>
   <i type="int" name="NGZF">    48</i>
   <i type="logical" name="ADDGRID"> F  </i>
  </separator>
  <separator name="ionic" >
   <i type="int" name="NSW">   100</i>
   <i type="int" name="IBRION">     2</i>
   <i type="int" name="MDALGO">     0</i>
   <i type="int" name="ISIF">     3</i>
   <i name="PSTRESS">      0.00000000</i>
   <i name="EDIFFG">     -0.01000000</i>
   <i type="int" name="NFREE">     1</i>
   <i name="POTIM">      0.50000000</i>
   <i name="SMASS">     -3.00000000</i>
   <i name="SCALEE">      1.00000000</i>
  </separator>
  <separator name="ionic md" >
   <i name="TEBEG">      0.00010000</i>
   <i name="TEEND">      0.00010000</i>
   <i type="int" name="NBLOCK">     1</i>
   <i type="int" name="KBLOCK">   100</i>
   <i type="int" name="NPACO">   256</i>
   <i name="APACO">     10.00000000</i>
  </separator>
  <separator name="symmetry" >
   <i type="int" name="ISYM">     2</i>
   <i name="SYMPREC">      0.00001000</i>
  </separator>
  <separator name="dos" >
   <i type="int" name="LORBIT">     0</i>
   <v name="RWIGS">     -1.00000000</v>
   <i type="int" name="NEDOS">   301</i>
   <i name="EMIN">     10.00000000</i>
   <i name="EMAX">    -10.00000000</i>
   <i name="EFERMI">      0.00000000</i>
  </separator>
  <separator name="writing" >
   <i type="int" name="NWRITE">     2</i>
   <i type="logical" name="LWAVE"> T  </i>
   <i type="logical" name="LDOWNSAMPLE"> F  </i>
   <i type="logical" name="LCHARG"> T  </i>
   <i type="logical" name="LPARD"> F  </i>
   <i type="logical" name="LVTOT"> F  </i>
   <i type="logical" name="LVHAR"> F  </i>
   <i type="logical" name="LELF"> F  </i>
   <i type="logical" name="LOPTICS"> F  </i>
   <v name="STM">      0.00000000      0.00000000      0.00000000      0.00000000      0.00000000      0.00000000      0.00000000</v>
  </separator>
  <separator name="performance" >
   <i type="int" name="NPAR">    24</i>
   <i type="int" name="NSIM">     4</i>
   <i type="int" name="NBLK">    -1</i>
   <i type="logical" name="LPLANE"> T  </i>
   <i type="logical" name="LSCALAPACK"> T  </i>
   <i type="logical" name="LSCAAWARE"> F  </i>
   <i type="logical" name="LSCALU"> F  </i>
   <i type="logical" name="LASYNC"> F  </i>
   <i type="logical" name="LORBITALREAL"> F  </i>
  </separator>
  <separator name="miscellaneous" >
   <i type="int" name="IDIOT">     3</i>
   <i type="int" name="PHON_NSTRUCT">    -1</i>
   <i type="logical" name="LMUSIC"> F  </i>
   <v name="POMASS">     26.98100000</v>
   <v name="DARWINR">      0.00000000</v>
   <v name="DARWINV">      1.00000000</v>
   <i type="logical" name="LCORR"> T  </i>
  </separator>
  <i type="logical" name="GGA_COMPAT"> T  </i>
  <i type="logical" name="LBERRY"> F  </i>
  <i type="int" name="ICORELEVEL">     0</i>
  <i type="logical" name="LDAU"> F  </i>
  <i type="int" name="I_CONSTRAINED_M">     0</i>
  <separator name="electronic exchange-correlation" >
   <i type="string" name="GGA">--</i>
   <i type="int" name="VOSKOWN">     0</i>
   <i type="logical" name="LHFCALC"> F  </i>
   <i type="string" name="PRECFOCK"></i>
   <i type="logical" name="LSYMGRAD"> F  </i>
   <i type="logical" name="LHFONE"> F  </i>
   <i type="logical" name="LRHFCALC"> F  </i>
   <i type="logical" name="LTHOMAS"> F  </i>
   <i type="logical" name="LMODELHF"> F  </i>
   <i type="logical" name="LFOCKACE"> F  </i>
   <i name="ENCUT4O">     -1.00000000</i>
   <i type="int" name="EXXOEP">     0</i>
   <i type="int" name="FOURORBIT">     0</i>
   <i name="AEXX">      0.00000000</i>
   <i name="HFALPHA">      0.00000000</i>
   <i name="MCALPHA">      0.00000000</i>
   <i name="ALDAX">      1.00000000</i>
   <i name="AGGAX">      1.00000000</i>
   <i name="ALDAC">      1.00000000</i>
   <i name="AGGAC">      1.00000000</i>
   <i type="int" name="NKREDX">     1</i>
   <i type="int" name="NKREDY">     1</i>
   <i type="int" name="NKREDZ">     1</i>
   <i type="logical" name="SHIFTRED"> F  </i>
   <i type="logical" name="ODDONLY"> F  </i>
   <i type="logical" name="EVENONLY"> F  </i>
   <i type="int" name="LMAXFOCK">     0</i>
   <i type="int" name="NMAXFOCKAE">     0</i>
   <i type="logical" name="LFOCKAEDFT"> F  </i>
   <i name="HFSCREEN">      0.00000000</i>
   <i name="HFSCREENC">      0.00000000</i>
   <i type="int" name="NBANDSGWLOW">     0</i>
  </separator>
  <separator name="vdW DFT" >
   <i type="logical" name="LUSE_VDW"> F  </i>
   <i name="Zab_VDW">     -0.84910000</i>
   <i name="PARAM1">      0.12340000</i>
   <i name="PARAM2">      1.00000000</i>
   <i name="PARAM3">      0.00000000</i>
  </separator>
  <separator name="model GW" >
   <i type="int" name="MODEL_GW">     0</i>
   <i name="MODEL_EPS0">     18.75000000</i>
   <i name="MODEL_ALPHA">      1.00000000</i>
  </separator>
  <separator name="linear response parameters" >
   <i type="logical" name="LEPSILON"> F  </i>
   <i type="logical" name="LRPA"> F  </i>
   <i type="logical" name="LNABLA"> F  </i>
   <i type="logical" name="LVEL"> F  </i>
   <i name="CSHIFT">      0.10000000</i>
   <i name="OMEGAMAX">     -1.00000000</i>
   <i name="DEG_THRESHOLD">      0.00200000</i>
   <i name="RTIME">     -0.10000000</i>
   <i name="WPLASMAI">      0.00000000</i>
   <v name="DFIELD">      0.00000000      0.00000000      0.00000000</v>
   <v name="WPLASMA">      0.00000000      0.00000000      0.00000000      0.00000000      0.00000000      0.00000000      0.00000000      0.00000000      0.00000000</v>
  </separator>
  <separator name="orbital magnetization" >
   <i type="logical" name="NUCIND"> F  </i>
   <v name="MAGPOS">      0.00000000      0.00000000      0.00000000</v>
   <i type="logical" name="LNICSALL"> T  </i>
   <i type="logical" name="ORBITALMAG"> F  </i>
   <i type="logical" name="LMAGBLOCH"> F  </i>
   <i type="logical" name="LCHIMAG"> F  </i>
   <i type="logical" name="LGAUGE"> T  </i>
   <i type="int" name="MAGATOM">     0</i>
   <v name="MAGDIPOL">      0.00000000      0.00000000      0.00000000</v>
   <v name="AVECCONST">      0.00000000      0.00000000      0.00000000</v>
  </separator>
  <separator name="response functions" >
   <i type="logical" name="LFINITE_TEMPERATURE"> F  </i>
   <i type="logical" name="LADDER"> F  </i>
   <i type="logical" name="LRPAFORCE"> F  </i>
   <i type="logical" name="LFXC"> F  </i>
   <i type="logical" name="LHARTREE"> T  </i>
   <i type="int" name="IBSE">     0</i>
   <v type="int" name="KPOINT">    -1     0     0     0</v>
   <i type="logical" name="LTCTC"> F  </i>
   <i type="logical" name="LTCTE"> F  </i>
   <i type="logical" name="LTETE"> F  </i>
   <i type="logical" name="LTRIPLET"> F  </i>
   <i type="logical" name="LFXCEPS"> F  </i>
   <i type="logical" name="LFXHEG"> F  </i>
   <i type="int" name="NATURALO">     2</i>
   <i type="logical" name="LHOLEGF"> F  </i>
   <i type="logical" name="L2ORDER"> F  </i>
   <i type="logical" name="LDMP1"> F  </i>
   <i type="logical" name="LMP2LT"> F  </i>
   <i type="logical" name="LSMP2LT"> F  </i>
   <i type="logical" name="LGWLF"> F  </i>
   <i name="ENCUTGW">     -2.00000000</i>
   <i name="ENCUTGWSOFT">     -2.00000000</i>
   <i name="ENCUTLF">     -1.00000000</i>
   <i type="logical" name="LESF_SPLINES"> F  </i>
   <i type="int" name="LMAXMP2">    -1</i>
   <i name="SCISSOR">      0.00000000</i>
   <i type="int" name="NOMEGA">     0</i>
   <i type="int" name="NOMEGAR">     0</i>
   <i type="int" name="NBANDSGW">    -1</i>
   <i type="int" name="NBANDSO">    -1</i>
   <i type="int" name="NBANDSV">    -1</i>
   <i type="int" name="NELMGW">     1</i>
   <i type="int" name="NELMHF">     1</i>
   <i type="int" name="DIM">     3</i>
   <i type="int" name="IESPILON">     4</i>
   <i type="int" name="ANTIRES">     0</i>
   <i name="OMEGAMAX">    -30.00000000</i>
   <i name="OMEGAMIN">    -30.00000000</i>
   <i name="OMEGATL">   -200.00000000</i>
   <i type="int" name="OMEGAGRID">     0</i>
   <i name="CSHIFT">     -0.10000000</i>
   <i type="logical" name="LSELFENERGY"> F  </i>
   <i type="logical" name="LSPECTRAL"> F  </i>
   <i type="logical" name="LSPECTRALGW"> F  </i>
   <i type="logical" name="LSINGLES"> F  </i>
   <i type="logical" name="LFERMIGW"> F  </i>
   <i type="logical" name="ODDONLYGW"> F  </i>
   <i type="logical" name="EVENONLYGW"> F  </i>
   <i type="int" name="NKREDLFX">     1</i>
   <i type="int" name="NKREDLFY">     1</i>
   <i type="int" name="NKREDLFZ">     1</i>
   <i type="int" name="MAXMEM">  2800</i>
   <i type="int" name="TELESCOPE">     0</i>
   <i type="int" name="NTAUPAR">    -1</i>
   <i type="int" name="NOMEGAPAR">    -1</i>
   <i name="DAMP_NEWTON">      0.80000001</i>
   <i name="LAMBDA">      1.00000000</i>
  </separator>
  <separator name="External order field" >
   <i name="OFIELD_KAPPA">      0.00000000</i>
   <v name="OFIELD_K">      0.00000000      0.00000000      0.00000000</v>
   <i name="OFIELD_Q6_NEAR">      0.00000000</i>
   <i name="OFIELD_Q6_FAR">      0.00000000</i>
   <i name="OFIELD_A">      0.00000000</i>
  </separator>
  <separator name="optional k-points parameters" >
   <i type="int" name="KPOINTS_OPT_MODE">     1</i>
   <i type="logical" name="LKPOINTS_OPT"> F  </i>
  </separator>
 </parameters>
 <atominfo>
  <atoms>       4 </atoms>
  <types>       1 </types>
  <array name="atoms" >
   <dimension dim="1">ion</dimension>
   <field type="string">element</field>
   <field type="int">atomtype</field>
   <set>
    <rc><c>Al</c><c>   1</c></rc>
    <rc><c>Al</c><c>   1</c></rc>
    <rc><c>Al</c><c>   1</c></rc>
    <rc><c>Al</c><c>   1</c></rc>
   </set>
  </array>
  <array name="atomtypes" >
   <dimension dim="1">type</dimension>
   <field type="int">atomspertype</field>
   <field type="string">element</field>
   <field>mass</field>
   <field>valence</field>
   <field type="string">pseudopotential</field>
   <set>
    <rc><c>   4</c><c>Al</c><c>     26.98100000</c><c>      3.00000000</c><c>  PAW_PBE Al 04Jan2001                  </c></rc>
   </set>
  </array>
 </atominfo>
 <structure name="initialpos" >
  <crystal>
   <varray name="basis" >
    <v>       5.00000000       0.00000000       0.00000000 </v>
    <v>       0.00000000       5.00000000       0.00000000 </v>
    <v>       0.00000000       0.00000000       5.00000000 </v>
   </varray>
   <i name="volume">    125.00000000 </i>
   <varray name="rec_basis" >
    <v>       0.20000000       0.00000000       0.00000000 </v>
    <v>       0.00000000       0.20000000       0.00000000 </v>
    <v>       0.00000000       0.00000000       0.20000000 </v>
   </varray>
  </crystal>
  <varray name="positions" >
   <v>       0.00000000       0.00000000       0.00000000 </v>
   <v>       0.00000000       0.50000000       0.50000000 </v>
   <v>       0.50000000       0.00000000       0.50000000 </v>
   <v>       0.50000000       0.50000000       0.00000000 </v>
  </varray>
 </structure>
 <calculation>
  <scstep>
   <time name="dav">    0.72    0.72</time>
   <time name="total">    0.73    0.74</time>
   <energy>
    <i name="alphaZ">     -0.42992767 </i>
    <i name="ewald">   -237.67573953 </i>
    <i name="hartreedc">     -2.36074629 </i>
    <i name="XCdc">   -108.91412127 </i>
    <i name="pawpsdc">    275.62854112 </i>
    <i name="pawaedc">   -147.71301740 </i>
    <i name="eentropy">     -0.00357497 </i>
    <i name="bandstr">     -4.05801977 </i>
    <i name="atom">    214.15261729 </i>
    <i name="e_fr_energy">    -11.37398848 </i>
    <i name="e_wo_entrp">    -11.37041351 </i>
    <i name="e_0_energy">    -11.37220099 </i>
   </energy>
  </scstep>
  <scstep>
   <time name="dav">    0.49    0.49</time>
   <time name="total">    0.49    0.50</time>
   <energy>
    <i name="alphaZ">     -0.42992767 </i>
    <i name="ewald">   -237.67573953 </i>
    <i name="hartreedc">     -2.36069351 </i>
    <i name="XCdc">   -108.91412222 </i>
    <i name="pawpsdc">    275.62178539 </i>
    <i name="pawaedc">   -147.70625186 </i>
    <i name="eentropy">     -0.00357496 </i>
    <i name="bandstr">     -4.05808140 </i>
    <i name="atom">    214.15261729 </i>
    <i name="e_fr_energy">    -11.37398845 </i>
    <i name="e_wo_entrp">    -11.37041350 </i>
    <i name="e_0_energy">    -11.37220097 </i>
   </energy>
  </scstep>
  <structure>
   <crystal>
    <varray name="basis" >
     <v>       5.00000000       0.00000000       0.00000000 </v>
     <v>       0.00000000       5.00000000       0.00000000 </v>
     <v>       0.00000000       0.00000000       5.00000000 </v>
    </varray>
    <i name="volume">    125.00000000 </i>
    <varray name="rec_basis" >
     <v>       0.20000000       0.00000000       0.00000000 </v>
     <v>       0.00000000       0.20000000       0.00000000 </v>
     <v>       0.00000000       0.00000000       0.20000000 </v>
    </varray>
   </crystal>
   <varray name="positions" >
    <v>       0.00000000       0.00000000       0.00000000 </v>
    <v>       0.00000000       0.50000000       0.50000000 </v>
    <v>       0.50000000       0.00000000       0.50000000 </v>
    <v>       0.50000000       0.50000000       0.00000000 </v>
   </varray>
  </structure>
  <varray name="forces" >
   <v>       0.00000000       0.00000000       0.00000000 </v>
   <v>       0.00000000      -0.00000000      -0.00000000 </v>
   <v>      -0.00000000      -0.00000000      -0.00000000 </v>
   <v>      -0.00000000       0.00000000      -0.00000000 </v>
  </varray>
  <varray name="stress" >
   <v>    -102.70177890       0.00000000       0.00000000 </v>
   <v>      -0.00000000    -102.70177890       0.00000000 </v>
   <v>      -0.00000000      -0.00000000    -102.70177890 </v>
  </varray>
  <energy>
   <i name="e_fr_energy">    -11.37398845 </i>
   <i name="e_wo_entrp">    -11.37041350 </i>
   <i name="e_0_energy">    -11.37220097 </i>
  </energy>
  <time name="totalsc">    1.90    1.94</time>
 </calculation>
 <calculation>
  <scstep>
   <time name="dav">    0.63    0.64</time>
   <time name="total">    0.65    0.65</time>
   <energy>
    <i name="alphaZ">     -0.58319011 </i>
    <i name="ewald">   -263.10136850 </i>
    <i name="hartreedc">     -2.61318631 </i>
    <i name="XCdc">   -107.42781420 </i>
    <i name="pawpsdc">    275.60869048 </i>
    <i name="pawaedc">   -147.69315006 </i>
    <i name="eentropy">     -0.00339105 </i>
    <i name="bandstr">     17.64093415 </i>
    <i name="atom">    214.15261729 </i>
    <i name="e_fr_energy">    -14.01985832 </i>
    <i name="e_wo_entrp">    -14.01646727 </i>
    <i name="e_0_energy">    -14.01816279 </i>
   </energy>
  </scstep>
  <scstep>
   <time name="dav">    0.77    0.78</time>
   <time name="total">    0.79    0.79</time>
   <energy>
    <i name="e_fr_energy">    -13.81580423 </i>
    <i name="e_wo_entrp">    -13.81237351 </i>
    <i name="e_0_energy">    -13.81408887 </i>
   </energy>
  </scstep>
  <scstep>
   <time name="dav">    0.70    0.71</time>
   <time name="total">    0.72    0.72</time>
   <energy>
    <i name="e_fr_energy">    -13.68297526 </i>
    <i name="e_wo_entrp">    -13.67946979 </i>
    <i name="e_0_energy">    -13.68122252 </i>
   </energy>
  </scstep>
  <scstep>
   <time name="dav">    0.79    0.79</time>
   <time name="total">    0.80    0.81</time>
   <energy>
    <i name="e_fr_energy">    -13.66922268 </i>
    <i name="e_wo_entrp">    -13.66570248 </i>
    <i name="e_0_energy">    -13.66746258 </i>
   </energy>
  </scstep>
  <scstep>
   <time name="dav">    0.94    0.95</time>
   <time name="total">    0.96    0.96</time>
   <energy>
    <i name="e_fr_energy">    -13.66917352 </i>
    <i name="e_wo_entrp">    -13.66565335 </i>
    <i name="e_0_energy">    -13.66741343 </i>
   </energy>
  </scstep>
  <scstep>
   <time name="dav">    0.61    0.62</time>
   <time name="total">    0.62    0.62</time>
   <energy>
    <i name="alphaZ">     -0.58319011 </i>
    <i name="ewald">   -263.10136850 </i>
    <i name="hartreedc">     -0.74382157 </i>
    <i name="XCdc">   -107.03608214 </i>
    <i name="pawpsdc">    351.11403613 </i>
    <i name="pawaedc">   -223.22160101 </i>
    <i name="eentropy">     -0.00352023 </i>
    <i name="bandstr">     15.75375633 </i>
    <i name="atom">    214.15261729 </i>
    <i name="e_fr_energy">    -13.66917382 </i>
    <i name="e_wo_entrp">    -13.66565359 </i>
    <i name="e_0_energy">    -13.66741370 </i>
   </energy>
  </scstep>
  <structure>
   <crystal>
    <varray name="basis" >
     <v>       4.51680926       0.00000000       0.00000000 </v>
     <v>      -0.00000000       4.51680926       0.00000000 </v>
     <v>      -0.00000000      -0.00000000       4.51680926 </v>
    </varray>
    <i name="volume">     92.14998175 </i>
    <varray name="rec_basis" >
     <v>       0.22139522       0.00000000       0.00000000 </v>
     <v>       0.00000000       0.22139522       0.00000000 </v>
     <v>       0.00000000      -0.00000000       0.22139522 </v>
    </varray>
   </crystal>
   <varray name="positions" >
    <v>       0.00000000       0.00000000       0.00000000 </v>
    <v>       0.00000000       0.50000000       0.50000000 </v>
    <v>       0.50000000      -0.00000000       0.50000000 </v>
    <v>       0.50000000       0.50000000      -0.00000000 </v>
   </varray>
  </structure>
  <varray name="forces" >
   <v>       0.00000000       0.00000000       0.00000000 </v>
   <v>      -0.00000000      -0.00000000      -0.00000000 </v>
   <v>       0.00000000      -0.00000000      -0.00000000 </v>
   <v>      -0.00000000       0.00000000      -0.00000000 </v>
  </varray>
  <varray name="stress" >
   <v>    -114.81091420       0.00000000       0.00000000 </v>
   <v>       0.00000000    -114.81091420      -0.00000000 </v>
   <v>       0.00000000       0.00000000    -114.81091420 </v>
  </varray>
  <energy>
   <i name="e_fr_energy">    -13.66917382 </i>
   <i name="e_wo_entrp">    -13.66565359 </i>
   <i name="e_0_energy">    -13.66741370 </i>
  </energy>
  <time name="totalsc">    5.15    5.19</time>
 </calculation>
 <calculation>
  <scstep>
   <time name="dav">    0.85    0.85</time>
   <time name="total">    0.86    0.87</time>
   <energy>
    <i name="alphaZ">     -1.86235893 </i>
    <i name="ewald">   -387.44273161 </i>
    <i name="hartreedc">     -1.09565248 </i>
    <i name="XCdc">   -100.63968119 </i>
    <i name="pawpsdc">    350.68065512 </i>
    <i name="pawaedc">   -222.78754137 </i>
    <i name="eentropy">     -0.00099443 </i>
    <i name="bandstr">    152.54078206 </i>
    <i name="atom">    214.15261729 </i>
    <i name="e_fr_energy">      3.54509446 </i>
    <i name="e_wo_entrp">      3.54608889 </i>
    <i name="e_0_energy">      3.54559168 </i>
   </energy>
  </scstep>
  <scstep>
   <time name="dav">    0.97    0.97</time>
   <time name="total">    0.98    0.99</time>
   <energy>
    <i name="e_fr_energy">      4.84984114 </i>
    <i name="e_wo_entrp">      4.85100783 </i>
    <i name="e_0_energy">      4.85042448 </i>
   </energy>
  </scstep>
  <scstep>
   <time name="dav">    0.82    0.83</time>
   <time name="total">    0.84    0.84</time>
   <energy>
    <i name="e_fr_energy">      5.79721043 </i>
    <i name="e_wo_entrp">      5.79887499 </i>
    <i name="e_0_energy">      5.79804271 </i>
   </energy>
  </scstep>
  <scstep>
   <time name="dav">    1.01    1.01</time>
   <time name="total">    1.02    1.03</time>
   <energy>
    <i name="e_fr_energy">      5.82446753 </i>
    <i name="e_wo_entrp">      5.82620356 </i>
    <i name="e_0_energy">      5.82533555 </i>
   </energy>
  </scstep>
  <scstep>
   <time name="dav">    0.83    0.83</time>
   <time name="total">    0.84    0.85</time>
   <energy>
    <i name="e_fr_energy">      5.82452813 </i>
    <i name="e_wo_entrp">      5.82626214 </i>
    <i name="e_0_energy">      5.82539514 </i>
   </energy>
  </scstep>
  <scstep>
   <time name="dav">    0.84    0.85</time>
   <time name="total">    0.84    0.85</time>
   <energy>
    <i name="alphaZ">     -1.86235893 </i>
    <i name="ewald">   -387.44273161 </i>
    <i name="hartreedc">     -2.08059012 </i>
    <i name="XCdc">    -97.15403949 </i>
    <i name="pawpsdc">   3160.47636482 </i>
    <i name="pawaedc">  -3034.49515831 </i>
    <i name="eentropy">     -0.00173385 </i>
    <i name="bandstr">    154.23215680 </i>
    <i name="atom">    214.15261729 </i>
    <i name="e_fr_energy">      5.82452659 </i>
    <i name="e_wo_entrp">      5.82626044 </i>
    <i name="e_0_energy">      5.82539351 </i>
   </energy>
  </scstep>
  <structure>
   <crystal>
    <varray name="basis" >
     <v>       3.06723704       0.00000000       0.00000000 </v>
     <v>      -0.00000000       3.06723704       0.00000000 </v>
     <v>      -0.00000000      -0.00000000       3.06723704 </v>
    </varray>
    <i name="volume">     28.85639145 </i>
    <varray name="rec_basis" >
     <v>       0.32602632       0.00000000       0.00000000 </v>
     <v>       0.00000000       0.32602632       0.00000000 </v>
     <v>       0.00000000      -0.00000000       0.32602632 </v>
    </varray>
   </crystal>
   <varray name="positions" >
    <v>       0.00000000       0.00000000       0.00000000 </v>
    <v>       0.00000000       0.50000000       0.50000000 </v>
    <v>       0.50000000      -0.00000000       0.50000000 </v>
    <v>       0.50000000       0.50000000      -0.00000000 </v>
   </varray>
  </structure>
  <varray name="forces" >
   <v>       0.00000000      -0.00000000      -0.00000000 </v>
   <v>      -0.00000000       0.00000000       0.00000000 </v>
   <v>      -0.00000000      -0.00000000      -0.00000000 </v>
   <v>       0.00000000       0.00000000       0.00000000 </v>
  </varray>
  <varray name="stress" >
   <v>    3602.26194385      -0.00000000      -0.00000000 </v>
   <v>      -0.00000000    3602.26194385      -0.00000000 </v>
   <v>      -0.00000000      -0.00000000    3602.26194385 </v>
  </varray>
  <energy>
   <i name="e_fr_energy">      5.82452659 </i>
   <i name="e_wo_entrp">      5.82626044 </i>
   <i name="e_0_energy">      5.82539351 </i>
  </energy>
  <time name="totalsc">    6.01    6.12</time>
 </calculation>
 <calculation>
  <scstep>
   <time name="dav">    1.04    1.05</time>
   <time name="total">    1.05    1.06</time>
   <energy>
    <i name="alphaZ">     -0.63829335 </i>
    <i name="ewald">   -271.13973168 </i>
    <i name="hartreedc">     -1.45599309 </i>
    <i name="XCdc">   -105.24848729 </i>
    <i name="pawpsdc">   3162.08062839 </i>
    <i name="pawaedc">  -3036.10008122 </i>
    <i name="eentropy">     -0.00295438 </i>
    <i name="bandstr">     22.64875357 </i>
    <i name="atom">    214.15261729 </i>
    <i name="e_fr_energy">    -15.70354175 </i>
    <i name="e_wo_entrp">    -15.70058738 </i>
    <i name="e_0_energy">    -15.70206457 </i>
   </energy>
  </scstep>
  <scstep>
   <time name="dav">    0.64    0.65</time>
   <time name="total">    0.66    0.66</time>
   <energy>
    <i name="e_fr_energy">    -14.80519140 </i>
    <i name="e_wo_entrp">    -14.80212443 </i>
    <i name="e_0_energy">    -14.80365791 </i>
   </energy>
  </scstep>
  <scstep>
   <time name="dav">    0.75    0.75</time>
   <time name="total">    0.76    0.77</time>
   <energy>
    <i name="e_fr_energy">    -14.22243903 </i>
    <i name="e_wo_entrp">    -14.21936873 </i>
    <i name="e_0_energy">    -14.22090388 </i>
   </energy>
  </scstep>
  <scstep>
   <time name="dav">    1.02    1.03</time>
   <time name="total">    1.03    1.04</time>
   <energy>
    <i name="e_fr_energy">    -14.22147922 </i>
    <i name="e_wo_entrp">    -14.21841861 </i>
    <i name="e_0_energy">    -14.21994892 </i>
   </energy>
  </scstep>
  <scstep>
   <time name="dav">    0.69    0.69</time>
   <time name="total">    0.70    0.71</time>
   <energy>
    <i name="e_fr_energy">    -14.22069456 </i>
    <i name="e_wo_entrp">    -14.21765205 </i>
    <i name="e_0_energy">    -14.21917331 </i>
   </energy>
  </scstep>
  <scstep>
   <time name="dav">    0.88    0.88</time>
   <time name="total">    0.89    0.90</time>
   <energy>
    <i name="e_fr_energy">    -14.22068148 </i>
    <i name="e_wo_entrp">    -14.21763805 </i>
    <i name="e_0_energy">    -14.21915977 </i>
   </energy>
  </scstep>
  <scstep>
   <time name="dav">    0.38    0.39</time>
   <time name="total">    0.39    0.39</time>
   <energy>
    <i name="alphaZ">     -0.63829335 </i>
    <i name="ewald">   -271.13973168 </i>
    <i name="hartreedc">     -0.53372718 </i>
    <i name="XCdc">   -106.39623171 </i>
    <i name="pawpsdc">    389.77140486 </i>
    <i name="pawaedc">   -261.89705430 </i>
    <i name="eentropy">     -0.00304410 </i>
    <i name="bandstr">     22.46338800 </i>
    <i name="atom">    214.15261729 </i>
    <i name="e_fr_energy">    -14.22067217 </i>
    <i name="e_wo_entrp">    -14.21762807 </i>
    <i name="e_0_energy">    -14.21915012 </i>
   </energy>
  </scstep>
  <structure>
   <crystal>
    <varray name="basis" >
     <v>       4.38290136       0.00000000       0.00000000 </v>
     <v>      -0.00000000       4.38290136       0.00000000 </v>
     <v>      -0.00000000      -0.00000000       4.38290136 </v>
    </varray>
    <i name="volume">     84.19476495 </i>
    <varray name="rec_basis" >
     <v>       0.22815937       0.00000000       0.00000000 </v>
     <v>       0.00000000       0.22815937       0.00000000 </v>
     <v>       0.00000000      -0.00000000       0.22815937 </v>
    </varray>
   </crystal>
   <varray name="positions" >
    <v>      -0.00000000      -0.00000000      -0.00000000 </v>
    <v>      -0.00000000       0.50000000       0.50000000 </v>
    <v>       0.50000000       0.00000000       0.50000000 </v>
    <v>       0.50000000       0.50000000       0.00000000 </v>
   </varray>
  </structure>
  <varray name="forces" >
   <v>      -0.00000000       0.00000000      -0.00000000 </v>
   <v>      -0.00000000       0.00000000       0.00000000 </v>
   <v>       0.00000000      -0.00000000      -0.00000000 </v>
   <v>       0.00000000      -0.00000000       0.00000000 </v>
  </varray>
  <varray name="stress" >
   <v>    -105.42253069       0.00000000      -0.00000000 </v>
   <v>       0.00000000    -105.42253069       0.00000000 </v>
   <v>       0.00000000       0.00000000    -105.42253069 </v>
  </varray>
  <energy>
   <i name="e_fr_energy">    -14.22067217 </i>
   <i name="e_wo_entrp">    -14.21762807 </i>
   <i name="e_0_energy">    -14.21915012 </i>
  </energy>
  <time name="totalsc">    6.11    6.21</time>
 </calculation>
 <calculation>
  <scstep>
   <time name="dav">    0.77    0.77</time>
   <time name="total">    0.78    0.79</time>
   <energy>
    <i name="alphaZ">     -1.02713396 </i>
    <i name="ewald">   -317.73282537 </i>
    <i name="hartreedc">     -0.62546441 </i>
    <i name="XCdc">   -103.55346229 </i>
    <i name="pawpsdc">    389.51113931 </i>
    <i name="pawaedc">   -261.63670677 </i>
    <i name="eentropy">     -0.00099661 </i>
    <i name="bandstr">     66.59363628 </i>
    <i name="atom">    214.15261729 </i>
    <i name="e_fr_energy">    -14.31919654 </i>
    <i name="e_wo_entrp">    -14.31819992 </i>
    <i name="e_0_energy">    -14.31869823 </i>
   </energy>
  </scstep>
  <scstep>
   <time name="dav">    0.79    0.79</time>
   <time name="total">    0.80    0.81</time>
   <energy>
    <i name="e_fr_energy">    -14.11163154 </i>
    <i name="e_wo_entrp">    -14.11067889 </i>
    <i name="e_0_energy">    -14.11115522 </i>
   </energy>
  </scstep>
  <scstep>
   <time name="dav">    0.82    0.83</time>
   <time name="total">    0.84    0.84</time>
   <energy>
    <i name="e_fr_energy">    -13.97565178 </i>
    <i name="e_wo_entrp">    -13.97471492 </i>
    <i name="e_0_energy">    -13.97518335 </i>
   </energy>
  </scstep>
  <scstep>
   <time name="dav">    0.80    0.80</time>
   <time name="total">    0.81    0.81</time>
   <energy>
    <i name="e_fr_energy">    -13.95000772 </i>
    <i name="e_wo_entrp">    -13.94905460 </i>
    <i name="e_0_energy">    -13.94953116 </i>
   </energy>
  </scstep>
  <scstep>
   <time name="dav">    0.96    0.97</time>
   <time name="total">    0.97    0.97</time>
   <energy>
    <i name="alphaZ">     -1.02713396 </i>
    <i name="ewald">   -317.73282537 </i>
    <i name="hartreedc">     -0.69502488 </i>
    <i name="XCdc">   -102.57538128 </i>
    <i name="pawpsdc">    877.24030884 </i>
    <i name="pawaedc">   -749.68451287 </i>
    <i name="eentropy">     -0.00095456 </i>
    <i name="bandstr">     66.37290751 </i>
    <i name="atom">    214.15261729 </i>
    <i name="e_fr_energy">    -13.94999926 </i>
    <i name="e_wo_entrp">    -13.94904470 </i>
    <i name="e_0_energy">    -13.94952198 </i>
   </energy>
  </scstep>
  <structure>
   <crystal>
    <varray name="basis" >
     <v>       3.74018233       0.00000000       0.00000000 </v>
     <v>      -0.00000000       3.74018233       0.00000000 </v>
     <v>      -0.00000000      -0.00000000       3.74018233 </v>
    </varray>
    <i name="volume">     52.32127525 </i>
    <varray name="rec_basis" >
     <v>       0.26736664       0.00000000       0.00000000 </v>
     <v>       0.00000000       0.26736664       0.00000000 </v>
     <v>       0.00000000      -0.00000000       0.26736664 </v>
    </varray>
   </crystal>
   <varray name="positions" >
    <v>       0.00000000       0.00000000       0.00000000 </v>
    <v>       0.00000000       0.50000000       0.50000000 </v>
    <v>       0.50000000      -0.00000000       0.50000000 </v>
    <v>       0.50000000       0.50000000      -0.00000000 </v>
   </varray>
  </structure>
  <varray name="forces" >
   <v>      -0.00000000       0.00000000       0.00000000 </v>
   <v>      -0.00000000       0.00000000       0.00000000 </v>
   <v>       0.00000000      -0.00000000      -0.00000000 </v>
   <v>       0.00000000      -0.00000000      -0.00000000 </v>
  </varray>
  <varray name="stress" >
   <v>     302.62906022       0.00000000      -0.00000000 </v>
   <v>       0.00000000     302.62906022      -0.00000000 </v>
   <v>       0.00000000       0.00000000     302.62906022 </v>
  </varray>
  <energy>
   <i name="e_fr_energy">    -13.94999926 </i>
   <i name="e_wo_entrp">    -13.94904470 </i>
   <i name="e_0_energy">    -13.94952198 </i>
  </energy>
  <time name="totalsc">    4.82    4.86</time>
 </calculation>
 <calculation>
  <scstep>
   <time name="dav">    0.77    0.78</time>
   <time name="total">    0.79    0.79</time>
   <energy>
    <i name="alphaZ">     -0.75079876 </i>
    <i name="ewald">   -286.21621746 </i>
    <i name="hartreedc">     -0.62770877 </i>
    <i name="XCdc">   -104.72593714 </i>
    <i name="pawpsdc">    872.55535657 </i>
    <i name="pawaedc">   -745.00010562 </i>
    <i name="eentropy">     -0.00199378 </i>
    <i name="bandstr">     35.59873723 </i>
    <i name="atom">    214.15261729 </i>
    <i name="e_fr_energy">    -15.01605046 </i>
    <i name="e_wo_entrp">    -15.01405668 </i>
    <i name="e_0_energy">    -15.01505357 </i>
   </energy>
  </scstep>
  <scstep>
   <time name="dav">    0.69    0.70</time>
   <time name="total">    0.71    0.71</time>
   <energy>
    <i name="e_fr_energy">    -14.94072394 </i>
    <i name="e_wo_entrp">    -14.93873606 </i>
    <i name="e_0_energy">    -14.93973000 </i>
   </energy>
  </scstep>
  <scstep>
   <time name="dav">    0.83    0.84</time>
   <time name="total">    0.85    0.85</time>
   <energy>
    <i name="e_fr_energy">    -14.89214019 </i>
    <i name="e_wo_entrp">    -14.89016902 </i>
    <i name="e_0_energy">    -14.89115461 </i>
   </energy>
  </scstep>
  <scstep>
   <time name="dav">    0.83    0.83</time>
   <time name="total">    0.84    0.85</time>
   <energy>
    <i name="e_fr_energy">    -14.88807547 </i>
    <i name="e_wo_entrp">    -14.88611315 </i>
    <i name="e_0_energy">    -14.88709431 </i>
   </energy>
  </scstep>
  <scstep>
   <time name="dav">    0.91    0.92</time>
   <time name="total">    0.92    0.92</time>
   <energy>
    <i name="alphaZ">     -0.75079876 </i>
    <i name="ewald">   -286.21621746 </i>
    <i name="hartreedc">     -0.39892293 </i>
    <i name="XCdc">   -105.16556344 </i>
    <i name="pawpsdc">    490.34401917 </i>
    <i name="pawaedc">   -362.52899425 </i>
    <i name="eentropy">     -0.00196050 </i>
    <i name="bandstr">     35.67775464 </i>
    <i name="atom">    214.15261729 </i>
    <i name="e_fr_energy">    -14.88806623 </i>
    <i name="e_wo_entrp">    -14.88610574 </i>
    <i name="e_0_energy">    -14.88708599 </i>
   </energy>
  </scstep>
  <structure>
   <crystal>
    <varray name="basis" >
     <v>       4.15203131       0.00000000       0.00000000 </v>
     <v>      -0.00000000       4.15203131       0.00000000 </v>
     <v>      -0.00000000      -0.00000000       4.15203131 </v>
    </varray>
    <i name="volume">     71.57837933 </i>
    <varray name="rec_basis" >
     <v>       0.24084597       0.00000000       0.00000000 </v>
     <v>       0.00000000       0.24084597       0.00000000 </v>
     <v>       0.00000000      -0.00000000       0.24084597 </v>
    </varray>
   </crystal>
   <varray name="positions" >
    <v>       0.00000000       0.00000000       0.00000000 </v>
    <v>       0.00000000       0.50000000       0.50000000 </v>
    <v>       0.50000000      -0.00000000       0.50000000 </v>
    <v>       0.50000000       0.50000000      -0.00000000 </v>
   </varray>
  </structure>
  <varray name="forces" >
   <v>       0.00000000       0.00000000      -0.00000000 </v>
   <v>       0.00000000      -0.00000000       0.00000000 </v>
   <v>      -0.00000000       0.00000000      -0.00000000 </v>
   <v>       0.00000000      -0.00000000       0.00000000 </v>
  </varray>
  <varray name="stress" >
   <v>     -53.35987992      -0.00000000       0.00000000 </v>
   <v>      -0.00000000     -53.35987992       0.00000000 </v>
   <v>      -0.00000000      -0.00000000     -53.35987992 </v>
  </varray>
  <energy>
   <i name="e_fr_energy">    -14.88806623 </i>
   <i name="e_wo_entrp">    -14.88610574 </i>
   <i name="e_0_energy">    -14.88708599 </i>
  </energy>
  <time name="totalsc">    4.72    4.76</time>
 </calculation>
 <calculation>
  <scstep>
   <time name="dav">    0.77    0.77</time>
   <time name="total">    0.78    0.78</time>
   <energy>
    <i name="alphaZ">     -0.83247810 </i>
    <i name="ewald">   -296.24020205 </i>
    <i name="hartreedc">     -0.41273810 </i>
    <i name="XCdc">   -104.51312298 </i>
    <i name="pawpsdc">    490.99846031 </i>
    <i name="pawaedc">   -363.18355997 </i>
    <i name="eentropy">     -0.00142876 </i>
    <i name="bandstr">     45.03121266 </i>
    <i name="atom">    214.15261729 </i>
    <i name="e_fr_energy">    -15.00123970 </i>
    <i name="e_wo_entrp">    -14.99981094 </i>
    <i name="e_0_energy">    -15.00052532 </i>
   </energy>
  </scstep>
  <scstep>
   <time name="dav">    0.74    0.74</time>
   <time name="total">    0.75    0.76</time>
   <energy>
    <i name="e_fr_energy">    -14.99163608 </i>
    <i name="e_wo_entrp">    -14.99019805 </i>
    <i name="e_0_energy">    -14.99091707 </i>
   </energy>
  </scstep>
  <scstep>
   <time name="dav">    0.87    0.88</time>
   <time name="total">    0.89    0.89</time>
   <energy>
    <i name="e_fr_energy">    -14.98557775 </i>
    <i name="e_wo_entrp">    -14.98412869 </i>
    <i name="e_0_energy">    -14.98485322 </i>
   </energy>
  </scstep>
  <scstep>
   <time name="dav">    0.74    0.74</time>
   <time name="total">    0.75    0.76</time>
   <energy>
    <i name="e_fr_energy">    -14.98451363 </i>
    <i name="e_wo_entrp">    -14.98305670 </i>
    <i name="e_0_energy">    -14.98378517 </i>
   </energy>
  </scstep>
  <scstep>
   <time name="dav">    0.84    0.84</time>
   <time name="total">    0.84    0.85</time>
   <energy>
    <i name="alphaZ">     -0.83247810 </i>
    <i name="ewald">   -296.24020205 </i>
    <i name="hartreedc">     -0.43453455 </i>
    <i name="XCdc">   -104.33895601 </i>
    <i name="pawpsdc">    584.93233148 </i>
    <i name="pawaedc">   -457.17780736 </i>
    <i name="eentropy">     -0.00145766 </i>
    <i name="bandstr">     44.95597162 </i>
    <i name="atom">    214.15261729 </i>
    <i name="e_fr_energy">    -14.98451535 </i>
    <i name="e_wo_entrp">    -14.98305769 </i>
    <i name="e_0_energy">    -14.98378652 </i>
   </energy>
  </scstep>
  <structure>
   <crystal>
    <varray name="basis" >
     <v>       4.01153756       0.00000000       0.00000000 </v>
     <v>      -0.00000000       4.01153756       0.00000000 </v>
     <v>      -0.00000000      -0.00000000       4.01153756 </v>
    </varray>
    <i name="volume">     64.55540185 </i>
    <varray name="rec_basis" >
     <v>       0.24928098       0.00000000       0.00000000 </v>
     <v>       0.00000000       0.24928098       0.00000000 </v>
     <v>       0.00000000      -0.00000000       0.24928098 </v>
    </varray>
   </crystal>
   <varray name="positions" >
    <v>       0.00000000       0.00000000       0.00000000 </v>
    <v>       0.00000000       0.50000000       0.50000000 </v>
    <v>       0.50000000      -0.00000000       0.50000000 </v>
    <v>       0.50000000       0.50000000      -0.00000000 </v>
   </varray>
  </structure>
  <varray name="forces" >
   <v>       0.00000000       0.00000000      -0.00000000 </v>
   <v>       0.00000000       0.00000000      -0.00000000 </v>
   <v>      -0.00000000       0.00000000      -0.00000000 </v>
   <v>      -0.00000000      -0.00000000       0.00000000 </v>
  </varray>
  <varray name="stress" >
   <v>      16.29885884       0.00000000      -0.00000000 </v>
   <v>       0.00000000      16.29885884      -0.00000000 </v>
   <v>      -0.00000000      -0.00000000      16.29885884 </v>
  </varray>
  <energy>
   <i name="e_fr_energy">    -14.98451535 </i>
   <i name="e_wo_entrp">    -14.98305769 </i>
   <i name="e_0_energy">    -14.98378652 </i>
  </energy>
  <time name="totalsc">    4.64    4.67</time>
 </calculation>
 <calculation>
  <scstep>
   <time name="dav">    0.75    0.75</time>
   <time name="total">    0.76    0.77</time>
   <energy>
    <i name="alphaZ">     -0.81386916 </i>
    <i name="ewald">   -294.01619487 </i>
    <i name="hartreedc">     -0.43144141 </i>
    <i name="XCdc">   -104.48630559 </i>
    <i name="pawpsdc">    583.74296412 </i>
    <i name="pawaedc">   -455.98852585 </i>
    <i name="eentropy">     -0.00183630 </i>
    <i name="bandstr">     42.85097734 </i>
    <i name="atom">    214.15261729 </i>
    <i name="e_fr_energy">    -14.99161442 </i>
    <i name="e_wo_entrp">    -14.98977812 </i>
    <i name="e_0_energy">    -14.99069627 </i>
   </energy>
  </scstep>
  <scstep>
   <time name="dav">    0.74    0.74</time>
   <time name="total">    0.75    0.76</time>
   <energy>
    <i name="e_fr_energy">    -14.99117810 </i>
    <i name="e_wo_entrp">    -14.98934565 </i>
    <i name="e_0_energy">    -14.99026188 </i>
   </energy>
  </scstep>
  <scstep>
   <time name="dav">    0.86    0.86</time>
   <time name="total">    0.87    0.87</time>
   <energy>
    <i name="e_fr_energy">    -14.99090000 </i>
    <i name="e_wo_entrp">    -14.98907172 </i>
    <i name="e_0_energy">    -14.98998586 </i>
   </energy>
  </scstep>
  <scstep>
   <time name="dav">    0.72    0.72</time>
   <time name="total">    0.73    0.74</time>
   <energy>
    <i name="e_fr_energy">    -14.99085156 </i>
    <i name="e_wo_entrp">    -14.98902564 </i>
    <i name="e_0_energy">    -14.98993860 </i>
   </energy>
  </scstep>
  <scstep>
   <time name="dav">    0.29    0.29</time>
   <time name="total">    0.30    0.30</time>
   <energy>
    <i name="alphaZ">     -0.81386916 </i>
    <i name="ewald">   -294.01619487 </i>
    <i name="hartreedc">     -0.42012989 </i>
    <i name="XCdc">   -104.52228966 </i>
    <i name="pawpsdc">    560.98635699 </i>
    <i name="pawaedc">   -433.21684121 </i>
    <i name="eentropy">     -0.00182577 </i>
    <i name="bandstr">     42.86132516 </i>
    <i name="atom">    214.15261729 </i>
    <i name="e_fr_energy">    -14.99085112 </i>
    <i name="e_wo_entrp">    -14.98902535 </i>
    <i name="e_0_energy">    -14.98993823 </i>
   </energy>
  </scstep>
  <structure>
   <crystal>
    <varray name="basis" >
     <v>       4.04188177       0.00000000       0.00000000 </v>
     <v>      -0.00000000       4.04188177       0.00000000 </v>
     <v>      -0.00000000      -0.00000000       4.04188177 </v>
    </varray>
    <i name="volume">     66.03144733 </i>
    <varray name="rec_basis" >
     <v>       0.24740951       0.00000000       0.00000000 </v>
     <v>       0.00000000       0.24740951       0.00000000 </v>
     <v>       0.00000000      -0.00000000       0.24740951 </v>
    </varray>
   </crystal>
   <varray name="positions" >
    <v>       0.00000000       0.00000000       0.00000000 </v>
    <v>       0.00000000       0.50000000       0.50000000 </v>
    <v>       0.50000000      -0.00000000       0.50000000 </v>
    <v>       0.50000000       0.50000000      -0.00000000 </v>
   </varray>
  </structure>
  <varray name="forces" >
   <v>       0.00000000       0.00000000      -0.00000000 </v>
   <v>       0.00000000       0.00000000       0.00000000 </v>
   <v>      -0.00000000      -0.00000000      -0.00000000 </v>
   <v>      -0.00000000      -0.00000000      -0.00000000 </v>
  </varray>
  <varray name="stress" >
   <v>      -2.05652883      -0.00000000       0.00000000 </v>
   <v>       0.00000000      -2.05652883      -0.00000000 </v>
   <v>      -0.00000000      -0.00000000      -2.05652883 </v>
  </varray>
  <energy>
   <i name="e_fr_energy">    -14.99085112 </i>
   <i name="e_wo_entrp">    -14.98902535 </i>
   <i name="e_0_energy">    -14.98993823 </i>
  </energy>
  <time name="totalsc">    4.03    4.06</time>
 </calculation>
 <calculation>
  <scstep>
   <time name="dav">    0.75    0.75</time>
   <time name="total">    0.76    0.77</time>
   <energy>
    <i name="alphaZ">     -0.81596806 </i>
    <i name="ewald">   -294.26872583 </i>
    <i name="hartreedc">     -0.42046818 </i>
    <i name="XCdc">   -104.50561777 </i>
    <i name="pawpsdc">    561.13475632 </i>
    <i name="pawaedc">   -433.36523346 </i>
    <i name="eentropy">     -0.00178713 </i>
    <i name="bandstr">     43.09945273 </i>
    <i name="atom">    214.15261729 </i>
    <i name="e_fr_energy">    -14.99097409 </i>
    <i name="e_wo_entrp">    -14.98918696 </i>
    <i name="e_0_energy">    -14.99008053 </i>
   </energy>
  </scstep>
  <scstep>
   <time name="dav">    0.69    0.69</time>
   <time name="total">    0.69    0.70</time>
   <energy>
    <i name="alphaZ">     -0.81596806 </i>
    <i name="ewald">   -294.26872583 </i>
    <i name="hartreedc">     -0.42086602 </i>
    <i name="XCdc">   -104.50408213 </i>
    <i name="pawpsdc">    562.96206582 </i>
    <i name="pawaedc">   -435.19314782 </i>
    <i name="eentropy">     -0.00178760 </i>
    <i name="bandstr">     43.09892493 </i>
    <i name="atom">    214.15261729 </i>
    <i name="e_fr_energy">    -14.99096942 </i>
    <i name="e_wo_entrp">    -14.98918182 </i>
    <i name="e_0_energy">    -14.99007562 </i>
   </energy>
  </scstep>
  <structure>
   <crystal>
    <varray name="basis" >
     <v>       4.03841317       0.00000000       0.00000000 </v>
     <v>      -0.00000000       4.03841317       0.00000000 </v>
     <v>      -0.00000000      -0.00000000       4.03841317 </v>
    </varray>
    <i name="volume">     65.86159565 </i>
    <varray name="rec_basis" >
     <v>       0.24762201       0.00000000       0.00000000 </v>
     <v>       0.00000000       0.24762201       0.00000000 </v>
     <v>       0.00000000      -0.00000000       0.24762201 </v>
    </varray>
   </crystal>
   <varray name="positions" >
    <v>       0.00000000       0.00000000       0.00000000 </v>
    <v>       0.00000000       0.50000000       0.50000000 </v>
    <v>       0.50000000      -0.00000000       0.50000000 </v>
    <v>       0.50000000       0.50000000      -0.00000000 </v>
   </varray>
  </structure>
  <varray name="forces" >
   <v>       0.00000000       0.00000000      -0.00000000 </v>
   <v>       0.00000000       0.00000000       0.00000000 </v>
   <v>       0.00000000      -0.00000000       0.00000000 </v>
   <v>      -0.00000000      -0.00000000      -0.00000000 </v>
  </varray>
  <varray name="stress" >
   <v>      -0.24438945      -0.00000000      -0.00000000 </v>
   <v>       0.00000000      -0.24438945      -0.00000000 </v>
   <v>       0.00000000      -0.00000000      -0.24438945 </v>
  </varray>
  <energy>
   <i name="e_fr_energy">    -14.99096942 </i>
   <i name="e_wo_entrp">    -14.98918182 </i>
   <i name="e_0_energy">    -14.99007562 </i>
  </energy>
  <time name="totalsc">    2.24    2.34</time>
  <eigenvalues>
   <array>
    <dimension dim="1">band</dimension>
    <dimension dim="2">kpoint</dimension>
    <dimension dim="3">spin</dimension>
    <field>eigene</field>
    <field>occ</field>
    <set>
     <set comment="spin 1">
      <set comment="kpoint 1">
       <r>   -3.1270    1.0000 </r>
       <r>    5.0931    1.0000 </r>
       <r>    5.0931    1.0000 </r>
       <r>    5.0931    1.0000 </r>
       <r>    6.4209    1.0000 </r>
       <r>    6.4209    1.0000 </r>
       <r>    6.4209    1.0000 </r>
       <r>   13.2806    0.0000 </r>
       <r>   13.2806    0.0000 </r>
       <r>   13.2806    0.0000 </r>
       <r>   13.6262    0.0000 </r>
       <r>   13.6262    0.0000 </r>
       <r>   13.6262    0.0000 </r>
       <r>   13.6262    0.0000 </r>
       <r>   13.6262    0.0000 </r>
       <r>   13.6262    0.0000 </r>
       <r>   17.1102    0.0000 </r>
       <r>   17.1102    0.0000 </r>
       <r>   17.1102    0.0000 </r>
       <r>   20.6530    0.0000 </r>
       <r>   20.6530    0.0000 </r>
       <r>   20.6530    0.0000 </r>
       <r>   22.1606    0.0000 </r>
       <r>   22.1606    0.0000 </r>
      </set>
      <set comment="kpoint 2">
       <r>   -3.0916    1.0000 </r>
       <r>    4.5190    1.0000 </r>
       <r>    5.1255    1.0000 </r>
       <r>    5.1255    1.0000 </r>
       <r>    6.4552    1.0000 </r>
       <r>    6.4552    1.0000 </r>
       <r>    7.0564    1.0000 </r>
       <r>   12.4236    0.0000 </r>
       <r>   12.4236    0.0000 </r>
       <r>   13.3156    0.0000 </r>
       <r>   13.3664    0.0000 </r>
       <r>   13.3664    0.0000 </r>
       <r>   13.6563    0.0000 </r>
       <r>   13.6563    0.0000 </r>
       <r>   14.5488    0.0000 </r>
       <r>   14.5488    0.0000 </r>
       <r>   17.1428    0.0000 </r>
       <r>   17.4231    0.0000 </r>
       <r>   17.4231    0.0000 </r>
       <r>   20.2146    0.0000 </r>
       <r>   20.2146    0.0000 </r>
       <r>   20.3745    0.0000 </r>
       <r>   22.0724    0.0000 </r>
       <r>   22.6514    0.0000 </r>
      </set>
      <set comment="kpoint 3">
       <r>   -2.9852    1.0000 </r>
       <r>    3.6188    1.0000 </r>
       <r>    5.2229    1.0000 </r>
       <r>    5.2229    1.0000 </r>
       <r>    6.5577    1.0000 </r>
       <r>    6.5577    1.0000 </r>
       <r>    8.1406    0.0003 </r>
       <r>   11.4808    0.0000 </r>
       <r>   11.4808    0.0000 </r>
       <r>   12.7647    0.0000 </r>
       <r>   12.7647    0.0000 </r>
       <r>   13.4205    0.0000 </r>
       <r>   13.7466    0.0000 </r>
       <r>   13.7466    0.0000 </r>
       <r>   15.6881    0.0000 </r>
       <r>   15.6881    0.0000 </r>
       <r>   17.2399    0.0000 </r>
       <r>   18.1832    0.0000 </r>
       <r>   18.1832    0.0000 </r>
       <r>   19.4569    0.0000 </r>
       <r>   19.4569    0.0000 </r>
       <r>   19.7308    0.0000 </r>
       <r>   21.8237    0.0000 </r>
       <r>   23.5647    0.0000 </r>
      </set>
      <set comment="kpoint 4">
       <r>   -2.8082    1.0000 </r>
       <r>    2.7264    1.0000 </r>
       <r>    5.3851    1.0000 </r>
       <r>    5.3851    1.0000 </r>
       <r>    6.7276    1.0000 </r>
       <r>    6.7276    1.0000 </r>
       <r>    9.3396    0.0000 </r>
       <r>   10.5994    0.0000 </r>
       <r>   10.5994    0.0000 </r>
       <r>   12.0458    0.0000 </r>
       <r>   12.0458    0.0000 </r>
       <r>   13.5952    0.0000 </r>
       <r>   13.8970    0.0000 </r>
       <r>   13.8970    0.0000 </r>
       <r>   16.8966    0.0000 </r>
       <r>   16.8966    0.0000 </r>
       <r>   17.4007    0.0000 </r>
       <r>   18.6845    0.0000 </r>
       <r>   18.6845    0.0000 </r>
       <r>   18.9639    0.0000 </r>
       <r>   19.1651    0.0000 </r>
       <r>   19.1651    0.0000 </r>
       <r>   21.4533    0.0000 </r>
       <r>   24.2854    0.0000 </r>
      </set>
      <set comment="kpoint 5">
       <r>   -2.5607    1.0000 </r>
       <r>    1.8824    1.0000 </r>
       <r>    5.6124    1.0000 </r>
       <r>    5.6124    1.0000 </r>
       <r>    6.9629    1.0000 </r>
       <r>    6.9629    1.0000 </r>
       <r>    9.7829    0.0000 </r>
       <r>    9.7829    0.0000 </r>
       <r>   10.6124    0.0000 </r>
       <r>   11.3126    0.0000 </r>
       <r>   11.3126    0.0000 </r>
       <r>   13.8396    0.0000 </r>
       <r>   14.1076    0.0000 </r>
       <r>   14.1076    0.0000 </r>
       <r>   17.6231    0.0000 </r>
       <r>   17.9491    0.0000 </r>
       <r>   17.9491    0.0000 </r>
       <r>   18.1699    0.0000 </r>
       <r>   18.1699    0.0000 </r>
       <r>   18.1836    0.0000 </r>
       <r>   20.2632    0.0000 </r>
       <r>   20.2632    0.0000 </r>
       <r>   21.0050    0.0000 </r>
       <r>   22.6763    0.0000 </r>
      </set>
      <set comment="kpoint 6">
       <r>   -2.2432    1.0000 </r>
       <r>    1.0969    1.0000 </r>
       <r>    5.9047    1.0000 </r>
       <r>    5.9047    1.0000 </r>
       <r>    7.2598    1.0000 </r>
       <r>    7.2598    1.0000 </r>
       <r>    9.0319    0.0000 </r>
       <r>    9.0319    0.0000 </r>
       <r>   10.6090    0.0000 </r>
       <r>   10.6090    0.0000 </r>
       <r>   11.9482    0.0000 </r>
       <r>   14.1532    0.0000 </r>
       <r>   14.3786    0.0000 </r>
       <r>   14.3786    0.0000 </r>
       <r>   17.2644    0.0000 </r>
       <r>   17.2644    0.0000 </r>
       <r>   17.4329    0.0000 </r>
       <r>   17.9046    0.0000 </r>
       <r>   19.5059    0.0000 </r>
       <r>   19.5059    0.0000 </r>
       <r>   20.5152    0.0000 </r>
       <r>   21.0464    0.0000 </r>
       <r>   21.4289    0.0000 </r>
       <r>   21.4289    0.0000 </r>
      </set>
      <set comment="kpoint 7">
       <r>   -1.8561    1.0000 </r>
       <r>    0.3741    1.0000 </r>
       <r>    6.2622    1.0000 </r>
       <r>    6.2622    1.0000 </r>
       <r>    7.6085    1.0000 </r>
       <r>    7.6085    1.0000 </r>
       <r>    8.3466    0.0000 </r>
       <r>    8.3466    0.0000 </r>
       <r>    9.9622    0.0000 </r>
       <r>    9.9622    0.0000 </r>
       <r>   13.3424    0.0000 </r>
       <r>   14.5355    0.0000 </r>
       <r>   14.7098    0.0000 </r>
       <r>   14.7098    0.0000 </r>
       <r>   16.6355    0.0000 </r>
       <r>   16.6355    0.0000 </r>
       <r>   16.7306    0.0000 </r>
       <r>   18.2415    0.0000 </r>
       <r>   19.4239    0.0000 </r>
       <r>   20.0194    0.0000 </r>
       <r>   20.9025    0.0000 </r>
       <r>   20.9025    0.0000 </r>
       <r>   22.6240    0.0000 </r>
       <r>   22.6240    0.0000 </r>
      </set>
      <set comment="kpoint 8">
       <r>   -1.4001    1.0000 </r>
       <r>   -0.2840    1.0000 </r>
       <r>    6.6850    1.0000 </r>
       <r>    6.6850    1.0000 </r>
       <r>    7.7272    1.0000 </r>
       <r>    7.7272    1.0000 </r>
       <r>    7.9748    0.8985 </r>
       <r>    7.9748    0.8985 </r>
       <r>    9.4146    0.0000 </r>
       <r>    9.4146    0.0000 </r>
       <r>   14.7912    0.0000 </r>
       <r>   14.9860    0.0000 </r>
       <r>   15.1014    0.0000 </r>
       <r>   15.1014    0.0000 </r>
       <r>   16.0647    0.0000 </r>
       <r>   16.0647    0.0000 </r>
       <r>   16.0858    0.0000 </r>
       <r>   17.8377    0.0000 </r>
       <r>   18.6287    0.0000 </r>
       <r>   19.5271    0.0000 </r>
       <r>   22.3569    0.0000 </r>
       <r>   22.3569    0.0000 </r>
       <r>   23.7671    0.0000 </r>
       <r>   23.7671    0.0000 </r>
      </set>
      <set comment="kpoint 9">
       <r>   -0.8757    1.0000 </r>
       <r>   -0.8757    1.0000 </r>
       <r>    7.1733    1.0000 </r>
       <r>    7.1733    1.0000 </r>
       <r>    7.1733    1.0000 </r>
       <r>    7.1733    1.0000 </r>
       <r>    8.1878    0.0000 </r>
       <r>    8.1878    0.0000 </r>
       <r>    9.1408    0.0000 </r>
       <r>    9.1408    0.0000 </r>
       <r>   15.5033    0.0000 </r>
       <r>   15.5033    0.0000 </r>
       <r>   15.5531    0.0000 </r>
       <r>   15.5531    0.0000 </r>
       <r>   15.5531    0.0000 </r>
       <r>   15.5531    0.0000 </r>
       <r>   16.2911    0.0000 </r>
       <r>   16.2911    0.0000 </r>
       <r>   19.0600    0.0000 </r>
       <r>   19.0600    0.0000 </r>
       <r>   23.8655    0.0000 </r>
       <r>   23.8655    0.0000 </r>
       <r>   23.8655    0.0000 </r>
       <r>   23.8655    0.0000 </r>
      </set>
      <set comment="kpoint 10">
       <r>   -3.0561    1.0000 </r>
       <r>    4.5521    1.0000 </r>
       <r>    4.5521    1.0000 </r>
       <r>    5.1580    1.0000 </r>
       <r>    6.4893    1.0000 </r>
       <r>    7.0898    1.0000 </r>
       <r>    7.0898    1.0000 </r>
       <r>   11.8277    0.0000 </r>
       <r>   12.4566    0.0000 </r>
       <r>   12.4566    0.0000 </r>
       <r>   13.3970    0.0000 </r>
       <r>   13.3970    0.0000 </r>
       <r>   13.6869    0.0000 </r>
       <r>   14.5809    0.0000 </r>
       <r>   14.5809    0.0000 </r>
       <r>   14.6029    0.0000 </r>
       <r>   17.4551    0.0000 </r>
       <r>   17.4551    0.0000 </r>
       <r>   17.7628    0.0000 </r>
       <r>   19.5135    0.0000 </r>
       <r>   19.8587    0.0000 </r>
       <r>   20.7220    0.0000 </r>
       <r>   22.2064    0.0000 </r>
       <r>   22.7415    0.0000 </r>
      </set>
      <set comment="kpoint 11">
       <r>   -2.9498    1.0000 </r>
       <r>    3.6525    1.0000 </r>
       <r>    4.6515    1.0000 </r>
       <r>    5.2553    1.0000 </r>
       <r>    6.5915    1.0000 </r>
       <r>    7.1901    1.0000 </r>
       <r>    8.1733    0.0000 </r>
       <r>   10.9494    0.0000 </r>
       <r>   11.5136    0.0000 </r>
       <r>   12.5554    0.0000 </r>
       <r>   12.7963    0.0000 </r>
       <r>   13.2955    0.0000 </r>
       <r>   13.4887    0.0000 </r>
       <r>   14.6771    0.0000 </r>
       <r>   15.4286    0.0000 </r>
       <r>   15.7203    0.0000 </r>
       <r>   17.5508    0.0000 </r>
       <r>   18.2143    0.0000 </r>
       <r>   18.5617    0.0000 </r>
       <r>   18.6772    0.0000 </r>
       <r>   19.1649    0.0000 </r>
       <r>   20.4458    0.0000 </r>
       <r>   22.0594    0.0000 </r>
       <r>   23.3323    0.0000 </r>
      </set>
      <set comment="kpoint 12">
       <r>   -2.7728    1.0000 </r>
       <r>    2.7603    1.0000 </r>
       <r>    4.8170    1.0000 </r>
       <r>    5.4176    1.0000 </r>
       <r>    6.7604    1.0000 </r>
       <r>    7.3561    1.0000 </r>
       <r>    9.3714    0.0000 </r>
       <r>   10.0914    0.0000 </r>
       <r>   10.6321    0.0000 </r>
       <r>   12.0786    0.0000 </r>
       <r>   12.5958    0.0000 </r>
       <r>   12.7200    0.0000 </r>
       <r>   13.6417    0.0000 </r>
       <r>   14.8376    0.0000 </r>
       <r>   16.5674    0.0000 </r>
       <r>   16.9288    0.0000 </r>
       <r>   17.7092    0.0000 </r>
       <r>   17.8568    0.0000 </r>
       <r>   18.4204    0.0000 </r>
       <r>   19.1952    0.0000 </r>
       <r>   19.5706    0.0000 </r>
       <r>   19.8091    0.0000 </r>
       <r>   21.7090    0.0000 </r>
       <r>   24.2790    0.0000 </r>
      </set>
      <set comment="kpoint 13">
       <r>   -2.5254    1.0000 </r>
       <r>    1.9166    1.0000 </r>
       <r>    5.0484    1.0000 </r>
       <r>    5.6449    1.0000 </r>
       <r>    6.9933    1.0000 </r>
       <r>    7.5859    1.0000 </r>
       <r>    9.2874    0.0000 </r>
       <r>    9.8155    0.0000 </r>
       <r>   10.6428    0.0000 </r>
       <r>   11.3472    0.0000 </r>
       <r>   11.8640    0.0000 </r>
       <r>   12.9501    0.0000 </r>
       <r>   13.8561    0.0000 </r>
       <r>   15.0623    0.0000 </r>
       <r>   17.0778    0.0000 </r>
       <r>   17.6975    0.0000 </r>
       <r>   17.8082    0.0000 </r>
       <r>   17.9286    0.0000 </r>
       <r>   18.2019    0.0000 </r>
       <r>   19.0983    0.0000 </r>
       <r>   20.2922    0.0000 </r>
       <r>   20.6879    0.0000 </r>
       <r>   21.2665    0.0000 </r>
       <r>   22.7109    0.0000 </r>
      </set>
      <set comment="kpoint 14">
       <r>   -2.2080    1.0000 </r>
       <r>    1.1313    1.0000 </r>
       <r>    5.3455    1.0000 </r>
       <r>    5.9372    1.0000 </r>
       <r>    7.2806    1.0000 </r>
       <r>    7.8749    1.0000 </r>
       <r>    8.5523    0.0000 </r>
       <r>    9.0645    0.0000 </r>
       <r>   10.6471    0.0000 </r>
       <r>   11.1585    0.0000 </r>
       <r>   11.9762    0.0000 </r>
       <r>   13.2454    0.0000 </r>
       <r>   14.1324    0.0000 </r>
       <r>   15.3512    0.0000 </r>
       <r>   16.3504    0.0000 </r>
       <r>   17.0176    0.0000 </r>
       <r>   18.2063    0.0000 </r>
       <r>   18.4008    0.0000 </r>
       <r>   19.1208    0.0000 </r>
       <r>   19.5376    0.0000 </r>
       <r>   20.7634    0.0000 </r>
       <r>   21.1056    0.0000 </r>
       <r>   21.4563    0.0000 </r>
       <r>   21.8699    0.0000 </r>
      </set>
      <set comment="kpoint 15">
       <r>   -1.8210    1.0000 </r>
       <r>    0.4087    1.0000 </r>
       <r>    5.7078    1.0000 </r>
       <r>    6.2947    1.0000 </r>
       <r>    7.5336    1.0000 </r>
       <r>    7.9728    0.9080 </r>
       <r>    8.2086    0.0000 </r>
       <r>    8.3793    0.0000 </r>
       <r>   10.0108    0.0000 </r>
       <r>   10.5036    0.0000 </r>
       <r>   13.3631    0.0000 </r>
       <r>   13.6055    0.0000 </r>
       <r>   14.4739    0.0000 </r>
       <r>   15.6795    0.0000 </r>
       <r>   15.7043    0.0000 </r>
       <r>   16.3891    0.0000 </r>
       <r>   17.7454    0.0000 </r>
       <r>   18.5389    0.0000 </r>
       <r>   19.4555    0.0000 </r>
       <r>   20.3036    0.0000 </r>
       <r>   20.4938    0.0000 </r>
       <r>   20.9339    0.0000 </r>
       <r>   22.6471    0.0000 </r>
       <r>   23.0808    0.0000 </r>
      </set>
      <set comment="kpoint 16">
       <r>   -1.3650    1.0000 </r>
       <r>   -0.2492    1.0000 </r>
[...]
       <r>   20.5758    0.0000 </r>
       <r>   20.5758    0.0000 </r>
       <r>   20.5758    0.0000 </r>
       <r>   20.5758    0.0000 </r>
      </set>
      <set comment="kpoint 162">
       <r>    1.9922    1.0000 </r>
       <r>    3.0764    1.0000 </r>
       <r>    3.0764    1.0000 </r>
       <r>    3.0764    1.0000 </r>
       <r>    4.1842    1.0000 </r>
       <r>    4.1842    1.0000 </r>
       <r>    4.1842    1.0000 </r>
       <r>    5.2546    1.0000 </r>
       <r>   17.7311    0.0000 </r>
       <r>   17.7311    0.0000 </r>
       <r>   17.7311    0.0000 </r>
       <r>   18.0979    0.0000 </r>
       <r>   18.0979    0.0000 </r>
       <r>   18.0979    0.0000 </r>
       <r>   19.0742    0.0000 </r>
       <r>   19.0742    0.0000 </r>
       <r>   19.6000    0.0000 </r>
       <r>   19.6000    0.0000 </r>
       <r>   19.6000    0.0000 </r>
       <r>   20.0512    0.0000 </r>
       <r>   20.0512    0.0000 </r>
       <r>   21.0318    0.0000 </r>
       <r>   21.0318    0.0000 </r>
       <r>   21.0318    0.0000 </r>
      </set>
      <set comment="kpoint 163">
       <r>    2.5033    1.0000 </r>
       <r>    2.5033    1.0000 </r>
       <r>    3.4861    1.0000 </r>
       <r>    3.4861    1.0000 </r>
       <r>    3.7088    1.0000 </r>
       <r>    3.7088    1.0000 </r>
       <r>    4.6847    1.0000 </r>
       <r>    4.6847    1.0000 </r>
       <r>   18.0357    0.0000 </r>
       <r>   18.0357    0.0000 </r>
       <r>   18.1304    0.0000 </r>
       <r>   18.1304    0.0000 </r>
       <r>   18.5557    0.0000 </r>
       <r>   18.5557    0.0000 </r>
       <r>   18.9951    0.0000 </r>
       <r>   18.9951    0.0000 </r>
       <r>   19.5662    0.0000 </r>
       <r>   19.5662    0.0000 </r>
       <r>   20.2180    0.0000 </r>
       <r>   20.2180    0.0000 </r>
       <r>   20.3392    0.0000 </r>
       <r>   20.3392    0.0000 </r>
       <r>   20.5105    0.0000 </r>
       <r>   20.5105    0.0000 </r>
      </set>
      <set comment="kpoint 164">
       <r>    3.0091    1.0000 </r>
       <r>    3.0091    1.0000 </r>
       <r>    3.0091    1.0000 </r>
       <r>    3.0091    1.0000 </r>
       <r>    4.1166    1.0000 </r>
       <r>    4.1166    1.0000 </r>
       <r>    4.1166    1.0000 </r>
       <r>    4.1166    1.0000 </r>
       <r>   18.4724    0.0000 </r>
       <r>   18.4724    0.0000 </r>
       <r>   18.4724    0.0000 </r>
       <r>   18.4724    0.0000 </r>
       <r>   19.0139    0.0000 </r>
       <r>   19.0139    0.0000 </r>
       <r>   19.0139    0.0000 </r>
       <r>   19.0139    0.0000 </r>
       <r>   19.9942    0.0000 </r>
       <r>   19.9942    0.0000 </r>
       <r>   19.9942    0.0000 </r>
       <r>   19.9942    0.0000 </r>
       <r>   20.0308    0.0000 </r>
       <r>   20.0308    0.0000 </r>
       <r>   20.0308    0.0000 </r>
       <r>   20.0308    0.0000 </r>
      </set>
      <set comment="kpoint 165">
       <r>    3.4205    1.0000 </r>
       <r>    3.4205    1.0000 </r>
       <r>    3.4205    1.0000 </r>
       <r>    3.4205    1.0000 </r>
       <r>    3.6395    1.0000 </r>
       <r>    3.6395    1.0000 </r>
       <r>    3.6395    1.0000 </r>
       <r>    3.6395    1.0000 </r>
       <r>   19.4542    0.0000 </r>
       <r>   19.4542    0.0000 </r>
       <r>   19.4542    0.0000 </r>
       <r>   19.4542    0.0000 </r>
       <r>   19.4542    0.0000 </r>
       <r>   19.4542    0.0000 </r>
       <r>   19.4542    0.0000 </r>
       <r>   19.4542    0.0000 </r>
       <r>   19.4926    0.0000 </r>
       <r>   19.4926    0.0000 </r>
       <r>   19.4926    0.0000 </r>
       <r>   19.4926    0.0000 </r>
       <r>   19.4926    0.0000 </r>
       <r>   19.4926    0.0000 </r>
       <r>   19.4926    0.0000 </r>
       <r>   19.4926    0.0000 </r>
      </set>
     </set>
    </set>
   </array>
  </eigenvalues>
  <separator name="orbital magnetization" >
   <v name="MAGDIPOLOUT">      0.00000000      0.00000000      0.00000000</v>
  </separator>
  <dos>
   <i name="efermi">      8.01979882 </i>
   <total>
    <array>
     <dimension dim="1">gridpoints</dimension>
     <dimension dim="2">spin</dimension>
     <field>energy</field>
     <field>total</field>
     <field>integrated</field>
     <set>
      <set comment="spin 1">
       <r>    -4.5611     0.0000     0.0000 </r>
       <r>    -4.4559     0.0000     0.0000 </r>
       <r>    -4.3507     0.0000     0.0000 </r>
       <r>    -4.2456     0.0000     0.0000 </r>
       <r>    -4.1404     0.0000     0.0000 </r>
       <r>    -4.0352     0.0000     0.0000 </r>
       <r>    -3.9301     0.0000     0.0000 </r>
       <r>    -3.8249     0.0000     0.0000 </r>
       <r>    -3.7197     0.0000     0.0000 </r>
       <r>    -3.6146     0.0000     0.0000 </r>
       <r>    -3.5094     0.0000     0.0000 </r>
       <r>    -3.4042     0.0000     0.0000 </r>
       <r>    -3.2991     0.0000     0.0000 </r>
       <r>    -3.1939     0.0002     0.0000 </r>
       <r>    -3.0888     0.0296     0.0031 </r>
       <r>    -2.9836     0.1251     0.0163 </r>
       <r>    -2.8784     0.2140     0.0388 </r>
       <r>    -2.7733     0.2519     0.0653 </r>
       <r>    -2.6681     0.2886     0.0956 </r>
       <r>    -2.5629     0.2988     0.1271 </r>
       <r>    -2.4578     0.4107     0.1703 </r>
       <r>    -2.3526     0.4188     0.2143 </r>
       <r>    -2.2474     0.3028     0.2461 </r>
       <r>    -2.1423     0.5410     0.3030 </r>
       <r>    -2.0371     0.5058     0.3562 </r>
       <r>    -1.9319     0.4039     0.3987 </r>
       <r>    -1.8268     0.5572     0.4573 </r>
       <r>    -1.7216     0.4869     0.5085 </r>
       <r>    -1.6165     0.6907     0.5811 </r>
       <r>    -1.5113     0.5755     0.6417 </r>
       <r>    -1.4061     0.3877     0.6824 </r>
       <r>    -1.3010     0.7487     0.7612 </r>
       <r>    -1.1958     0.7835     0.8436 </r>
       <r>    -1.0906     0.5559     0.9020 </r>
       <r>    -0.9855     0.6006     0.9652 </r>
       <r>    -0.8803     0.6500     1.0335 </r>
       <r>    -0.7751     0.8444     1.1223 </r>
       <r>    -0.6700     0.8060     1.2071 </r>
       <r>    -0.5648     0.5332     1.2632 </r>
       <r>    -0.4596     0.9429     1.3623 </r>
       <r>    -0.3545     0.6967     1.4356 </r>
       <r>    -0.2493     0.6961     1.5088 </r>
       <r>    -0.1442     0.8541     1.5986 </r>
       <r>    -0.0390     0.7946     1.6822 </r>
       <r>     0.0662     1.1917     1.8075 </r>
       <r>     0.1713     0.6300     1.8738 </r>
       <r>     0.2765     0.5647     1.9332 </r>
       <r>     0.3817     1.0424     2.0428 </r>
       <r>     0.4868     0.9953     2.1475 </r>
       <r>     0.5920     0.9610     2.2485 </r>
       <r>     0.6972     0.9380     2.3472 </r>
       <r>     0.8023     0.7818     2.4294 </r>
       <r>     0.9075     0.9895     2.5334 </r>
       <r>     1.0127     1.0781     2.6468 </r>
       <r>     1.1178     0.7933     2.7303 </r>
       <r>     1.2230     0.9828     2.8336 </r>
       <r>     1.3281     1.1087     2.9502 </r>
       <r>     1.4333     1.0632     3.0620 </r>
       <r>     1.5385     1.1082     3.1786 </r>
       <r>     1.6436     0.9511     3.2786 </r>
       <r>     1.7488     1.1103     3.3953 </r>
       <r>     1.8540     0.7750     3.4768 </r>
       <r>     1.9591     1.0718     3.5896 </r>
       <r>     2.0643     1.3362     3.7301 </r>
       <r>     2.1695     1.1676     3.8529 </r>
       <r>     2.2746     1.3240     3.9921 </r>
       <r>     2.3798     0.8118     4.0775 </r>
       <r>     2.4850     1.0643     4.1894 </r>
       <r>     2.5901     1.2297     4.3187 </r>
       <r>     2.6953     1.0440     4.4285 </r>
       <r>     2.8004     1.2809     4.5632 </r>
       <r>     2.9056     1.5116     4.7222 </r>
       <r>     3.0108     0.8076     4.8071 </r>
       <r>     3.1159     1.2603     4.9397 </r>
       <r>     3.2211     1.3281     5.0793 </r>
       <r>     3.3263     1.5303     5.2403 </r>
       <r>     3.4314     1.1598     5.3622 </r>
       <r>     3.5366     0.7192     5.4379 </r>
       <r>     3.6418     1.5975     5.6059 </r>
       <r>     3.7469     1.2912     5.7417 </r>
       <r>     3.8521     1.1331     5.8608 </r>
       <r>     3.9573     1.6215     6.0313 </r>
       <r>     4.0624     1.1831     6.1558 </r>
       <r>     4.1676     1.5839     6.3223 </r>
       <r>     4.2727     1.3309     6.4623 </r>
       <r>     4.3779     0.8118     6.5477 </r>
       <r>     4.4831     1.4054     6.6955 </r>
       <r>     4.5882     1.5513     6.8586 </r>
       <r>     4.6934     1.5396     7.0205 </r>
       <r>     4.7986     1.5895     7.1877 </r>
       <r>     4.9037     1.3275     7.3273 </r>
       <r>     5.0089     1.4944     7.4844 </r>
       <r>     5.1141     1.4072     7.6324 </r>
       <r>     5.2192     1.3031     7.7695 </r>
       <r>     5.3244     1.8042     7.9592 </r>
       <r>     5.4296     1.5578     8.1230 </r>
       <r>     5.5347     1.7505     8.3071 </r>
       <r>     5.6399     0.9895     8.4112 </r>
       <r>     5.7451     1.6152     8.5810 </r>
       <r>     5.8502     1.8189     8.7723 </r>
       <r>     5.9554     0.9193     8.8690 </r>
       <r>     6.0605     1.2817     9.0038 </r>
       <r>     6.1657     1.8526     9.1986 </r>
       <r>     6.2709     1.5343     9.3600 </r>
       <r>     6.3760     1.0886     9.4745 </r>
       <r>     6.4812     1.3411     9.6155 </r>
       <r>     6.5864     1.5072     9.7740 </r>
       <r>     6.6915     1.5566     9.9377 </r>
       <r>     6.7967     1.3969    10.0846 </r>
       <r>     6.9019     1.4474    10.2368 </r>
       <r>     7.0070     1.7350    10.4193 </r>
       <r>     7.1122     1.2675    10.5526 </r>
       <r>     7.2174     1.7502    10.7366 </r>
       <r>     7.3225     1.7367    10.9193 </r>
       <r>     7.4277     1.4570    11.0725 </r>
       <r>     7.5328     1.5348    11.2339 </r>
       <r>     7.6380     1.6027    11.4025 </r>
       <r>     7.7432     1.3911    11.5488 </r>
       <r>     7.8483     1.5670    11.7135 </r>
       <r>     7.9535     1.6491    11.8870 </r>
       <r>     8.0587     1.5364    12.0486 </r>
       <r>     8.1638     1.3057    12.1859 </r>
       <r>     8.2690     1.6564    12.3601 </r>
       <r>     8.3742     1.5050    12.5183 </r>
       <r>     8.4793     2.2825    12.7584 </r>
       <r>     8.5845     1.9192    12.9602 </r>
       <r>     8.6897     1.8644    13.1563 </r>
       <r>     8.7948     1.3232    13.2954 </r>
       <r>     8.9000     1.6729    13.4714 </r>
       <r>     9.0051     1.4033    13.6189 </r>
       <r>     9.1103     1.3722    13.7632 </r>
       <r>     9.2155     1.3832    13.9087 </r>
       <r>     9.3206     2.2006    14.1401 </r>
       <r>     9.4258     1.8754    14.3373 </r>
       <r>     9.5310     2.3407    14.5835 </r>
       <r>     9.6361     1.6573    14.7578 </r>
       <r>     9.7413     1.3223    14.8969 </r>
       <r>     9.8465     1.3150    15.0351 </r>
       <r>     9.9516     1.7399    15.2181 </r>
       <r>    10.0568     2.2984    15.4598 </r>
       <r>    10.1620     1.9588    15.6658 </r>
       <r>    10.2671     1.6030    15.8344 </r>
       <r>    10.3723     1.6786    16.0109 </r>
       <r>    10.4774     1.8789    16.2085 </r>
       <r>    10.5826     1.7221    16.3896 </r>
       <r>    10.6878     1.8098    16.5800 </r>
       <r>    10.7929     1.4102    16.7283 </r>
       <r>    10.8981     2.2454    16.9644 </r>
       <r>    11.0033     2.0869    17.1839 </r>
       <r>    11.1084     2.1993    17.4152 </r>
       <r>    11.2136     1.7151    17.5955 </r>
       <r>    11.3188     1.8986    17.7952 </r>
       <r>    11.4239     1.5620    17.9594 </r>
       <r>    11.5291     2.1465    18.1852 </r>
       <r>    11.6343     1.6162    18.3552 </r>
       <r>    11.7394     2.1939    18.5859 </r>
       <r>    11.8446     1.3662    18.7295 </r>
       <r>    11.9497     2.4047    18.9824 </r>
       <r>    12.0549     1.8742    19.1795 </r>
       <r>    12.1601     1.8256    19.3715 </r>
       <r>    12.2652     2.3269    19.6162 </r>
       <r>    12.3704     2.3486    19.8632 </r>
       <r>    12.4756     1.9195    20.0651 </r>
       <r>    12.5807     1.6750    20.2412 </r>
       <r>    12.6859     2.1793    20.4704 </r>
       <r>    12.7911     2.1845    20.7001 </r>
       <r>    12.8962     1.7249    20.8815 </r>
       <r>    13.0014     2.0515    21.0973 </r>
       <r>    13.1066     2.2623    21.3352 </r>
       <r>    13.2117     2.0256    21.5482 </r>
       <r>    13.3169     2.0853    21.7675 </r>
       <r>    13.4220     2.4941    22.0298 </r>
       <r>    13.5272     1.9715    22.2371 </r>
       <r>    13.6324     2.6112    22.5117 </r>
       <r>    13.7375     2.1051    22.7331 </r>
       <r>    13.8427     2.3495    22.9802 </r>
       <r>    13.9479     2.6743    23.2614 </r>
       <r>    14.0530     2.2773    23.5009 </r>
       <r>    14.1582     2.2962    23.7424 </r>
       <r>    14.2634     2.1710    23.9707 </r>
       <r>    14.3685     2.2479    24.2071 </r>
       <r>    14.4737     1.8463    24.4013 </r>
       <r>    14.5789     1.6202    24.5717 </r>
       <r>    14.6840     3.2130    24.9096 </r>
       <r>    14.7892     2.4651    25.1688 </r>
       <r>    14.8943     1.7351    25.3513 </r>
       <r>    14.9995     1.6866    25.5287 </r>
       <r>    15.1047     2.2889    25.7694 </r>
       <r>    15.2098     2.1264    25.9930 </r>
       <r>    15.3150     2.4539    26.2511 </r>
       <r>    15.4202     2.2745    26.4903 </r>
       <r>    15.5253     2.0652    26.7074 </r>
       <r>    15.6305     1.6846    26.8846 </r>
       <r>    15.7357     2.1262    27.1082 </r>
       <r>    15.8408     2.9599    27.4195 </r>
       <r>    15.9460     1.8320    27.6121 </r>
       <r>    16.0512     2.0607    27.8288 </r>
       <r>    16.1563     1.7129    28.0090 </r>
       <r>    16.2615     1.4576    28.1623 </r>
       <r>    16.3666     2.6363    28.4395 </r>
       <r>    16.4718     2.3259    28.6841 </r>
       <r>    16.5770     2.3134    28.9274 </r>
       <r>    16.6821     2.2611    29.1652 </r>
       <r>    16.7873     1.6827    29.3422 </r>
       <r>    16.8925     2.2027    29.5738 </r>
       <r>    16.9976     2.2627    29.8118 </r>
       <r>    17.1028     2.5078    30.0755 </r>
       <r>    17.2080     2.3198    30.3194 </r>
       <r>    17.3131     1.7862    30.5073 </r>
       <r>    17.4183     2.0849    30.7266 </r>
       <r>    17.5235     1.5883    30.8936 </r>
       <r>    17.6286     1.8475    31.0879 </r>
       <r>    17.7338     2.7984    31.3822 </r>
       <r>    17.8389     2.6887    31.6649 </r>
       <r>    17.9441     2.2750    31.9042 </r>
       <r>    18.0493     1.9496    32.1092 </r>
       <r>    18.1544     2.2347    32.3442 </r>
       <r>    18.2596     2.2357    32.5793 </r>
       <r>    18.3648     1.8881    32.7779 </r>
       <r>    18.4699     2.3513    33.0252 </r>
       <r>    18.5751     3.1004    33.3512 </r>
       <r>    18.6803     2.8074    33.6464 </r>
       <r>    18.7854     2.0456    33.8616 </r>
       <r>    18.8906     1.7599    34.0466 </r>
       <r>    18.9958     2.3512    34.2939 </r>
       <r>    19.1009     2.5618    34.5633 </r>
       <r>    19.2061     2.5260    34.8290 </r>
       <r>    19.3112     2.2473    35.0653 </r>
       <r>    19.4164     1.7578    35.2502 </r>
       <r>    19.5216     3.0037    35.5660 </r>
       <r>    19.6267     3.0433    35.8861 </r>
       <r>    19.7319     3.5811    36.2627 </r>
       <r>    19.8371     2.8355    36.5609 </r>
       <r>    19.9422     2.8407    36.8596 </r>
       <r>    20.0474     2.9139    37.1661 </r>
       <r>    20.1526     2.1057    37.3875 </r>
       <r>    20.2577     1.9739    37.5951 </r>
       <r>    20.3629     2.6628    37.8751 </r>
       <r>    20.4681     2.6897    38.1580 </r>
       <r>    20.5732     2.7753    38.4499 </r>
       <r>    20.6784     2.5392    38.7169 </r>
       <r>    20.7835     2.5182    38.9817 </r>
       <r>    20.8887     2.7985    39.2760 </r>
       <r>    20.9939     2.4466    39.5333 </r>
       <r>    21.0990     2.0264    39.7464 </r>
       <r>    21.2042     2.5711    40.0168 </r>
       <r>    21.3094     2.9574    40.3278 </r>
       <r>    21.4145     2.6253    40.6039 </r>
       <r>    21.5197     2.1167    40.8265 </r>
       <r>    21.6249     1.9935    41.0362 </r>
       <r>    21.7300     2.4134    41.2900 </r>
       <r>    21.8352     2.7918    41.5836 </r>
       <r>    21.9404     3.4118    41.9424 </r>
       <r>    22.0455     2.2639    42.1804 </r>
       <r>    22.1507     1.6358    42.3525 </r>
       <r>    22.2558     1.9266    42.5551 </r>
       <r>    22.3610     2.2215    42.7887 </r>
       <r>    22.4662     2.0386    43.0031 </r>
       <r>    22.5713     2.6555    43.2823 </r>
       <r>    22.6765     2.9947    43.5973 </r>
       <r>    22.7817     3.8105    43.9980 </r>
       <r>    22.8868     2.8549    44.2982 </r>
       <r>    22.9920     2.9083    44.6041 </r>
       <r>    23.0972     2.1918    44.8346 </r>
       <r>    23.2023     3.0594    45.1563 </r>
       <r>    23.3075     2.0334    45.3702 </r>
       <r>    23.4127     2.1008    45.5911 </r>
       <r>    23.5178     1.5756    45.7568 </r>
       <r>    23.6230     2.5271    46.0226 </r>
       <r>    23.7281     2.4005    46.2750 </r>
       <r>    23.8333     2.2040    46.5068 </r>
       <r>    23.9385     2.5529    46.7753 </r>
       <r>    24.0436     1.8331    46.9680 </r>
       <r>    24.1488     1.3144    47.1063 </r>
       <r>    24.2540     1.8510    47.3009 </r>
       <r>    24.3591     1.9119    47.5020 </r>
       <r>    24.4643     1.3132    47.6401 </r>
       <r>    24.5695     0.7902    47.7232 </r>
       <r>    24.6746     0.4695    47.7726 </r>
       <r>    24.7798     0.2937    47.8035 </r>
       <r>    24.8850     0.5730    47.8637 </r>
       <r>    24.9901     0.4398    47.9100 </r>
       <r>    25.0953     0.3793    47.9499 </r>
       <r>    25.2004     0.3221    47.9837 </r>
       <r>    25.3056     0.0432    47.9883 </r>
       <r>    25.4108     0.0001    47.9883 </r>
       <r>    25.5159     0.0156    47.9899 </r>
       <r>    25.6211     0.0926    47.9997 </r>
       <r>    25.7263     0.0033    48.0000 </r>
       <r>    25.8314     0.0000    48.0000 </r>
       <r>    25.9366     0.0000    48.0000 </r>
       <r>    26.0418     0.0000    48.0000 </r>
       <r>    26.1469     0.0000    48.0000 </r>
       <r>    26.2521     0.0000    48.0000 </r>
       <r>    26.3573     0.0000    48.0000 </r>
       <r>    26.4624     0.0000    48.0000 </r>
       <r>    26.5676     0.0000    48.0000 </r>
       <r>    26.6727     0.0000    48.0000 </r>
       <r>    26.7779     0.0000    48.0000 </r>
       <r>    26.8831     0.0000    48.0000 </r>
       <r>    26.9882     0.0000    48.0000 </r>
      </set>
     </set>
    </array>
   </total>
  </dos>
 </calculation>
 <structure name="finalpos" >
  <crystal>
   <varray name="basis" >
    <v>       4.03841317       0.00000000       0.00000000 </v>
    <v>      -0.00000000       4.03841317       0.00000000 </v>
    <v>      -0.00000000      -0.00000000       4.03841317 </v>
   </varray>
   <i name="volume">     65.86159565 </i>
   <varray name="rec_basis" >
    <v>       0.24762201       0.00000000       0.00000000 </v>
    <v>       0.00000000       0.24762201       0.00000000 </v>
    <v>       0.00000000      -0.00000000       0.24762201 </v>
   </varray>
  </crystal>
  <varray name="positions" >
   <v>       0.00000000       0.00000000       0.00000000 </v>
   <v>       0.00000000       0.50000000       0.50000000 </v>
   <v>       0.50000000      -0.00000000       0.50000000 </v>
   <v>       0.50000000       0.50000000      -0.00000000 </v>
  </varray>
 </structure>
</modeling>
