unknown system                          
           1
     5.000000    0.000000    0.000000
     0.000000    5.000000    0.000000
     0.000000    0.000000    5.000000
   Al
     4
Direct configuration=     1
   0.00000000  0.00000000  0.00000000
   0.00000000  0.50000000  0.50000000
   0.50000000  0.00000000  0.50000000
   0.50000000  0.50000000  0.00000000
unknown system                          
           1
     4.516809    0.000000    0.000000
    -0.000000    4.516809    0.000000
    -0.000000   -0.000000    4.516809
   Al
     4
Direct configuration=     2
   0.00000000  0.00000000  0.00000000
   0.00000000  0.50000000  0.50000000
   0.50000000 -0.00000000  0.50000000
   0.50000000  0.50000000 -0.00000000
unknown system                          
           1
     3.067237    0.000000    0.000000
    -0.000000    3.067237    0.000000
    -0.000000   -0.000000    3.067237
   Al
     4
Direct configuration=     3
   0.00000000  0.00000000  0.00000000
   0.00000000  0.50000000  0.50000000
   0.50000000 -0.00000000  0.50000000
   0.50000000  0.50000000 -0.00000000
unknown system                          
           1
     4.382901    0.000000    0.000000
    -0.000000    4.382901    0.000000
    -0.000000   -0.000000    4.382901
   Al
     4
Direct configuration=     4
  -0.00000000 -0.00000000 -0.00000000
  -0.00000000  0.50000000  0.50000000
   0.50000000  0.00000000  0.50000000
   0.50000000  0.50000000  0.00000000
unknown system                          
           1
     3.740182    0.000000    0.000000
    -0.000000    3.740182    0.000000
    -0.000000   -0.000000    3.740182
   Al
     4
Direct configuration=     5
   0.00000000  0.00000000  0.00000000
   0.00000000  0.50000000  0.50000000
   0.50000000 -0.00000000  0.50000000
   0.50000000  0.50000000 -0.00000000
unknown system                          
           1
     4.152031    0.000000    0.000000
    -0.000000    4.152031    0.000000
    -0.000000   -0.000000    4.152031
   Al
     4
Direct configuration=     6
   0.00000000  0.00000000  0.00000000
   0.00000000  0.50000000  0.50000000
   0.50000000 -0.00000000  0.50000000
   0.50000000  0.50000000 -0.00000000
unknown system                          
           1
     4.011538    0.000000    0.000000
    -0.000000    4.011538    0.000000
    -0.000000   -0.000000    4.011538
   Al
     4
Direct configuration=     7
   0.00000000  0.00000000  0.00000000
   0.00000000  0.50000000  0.50000000
   0.50000000 -0.00000000  0.50000000
   0.50000000  0.50000000 -0.00000000
unknown system                          
           1
     4.041882    0.000000    0.000000
    -0.000000    4.041882    0.000000
    -0.000000   -0.000000    4.041882
   Al
     4
Direct configuration=     8
   0.00000000  0.00000000  0.00000000
   0.00000000  0.50000000  0.50000000
   0.50000000 -0.00000000  0.50000000
   0.50000000  0.50000000 -0.00000000
unknown system                          
           1
     4.038413    0.000000    0.000000
    -0.000000    4.038413    0.000000
    -0.000000   -0.000000    4.038413
   Al
     4
Direct configuration=     9
   0.00000000  0.00000000  0.00000000
   0.00000000  0.50000000  0.50000000
   0.50000000 -0.00000000  0.50000000
   0.50000000  0.50000000 -0.00000000
