       N       E                     dE             d eps       ncg     rms          rms(c)
DAV:   1    -0.786998515821E+01   -0.78700E+01   -0.38430E+03  7920   0.303E+02
DAV:   2    -0.149256903900E+02   -0.70557E+01   -0.69815E+01 11592   0.246E+01
DAV:   3    -0.149572092246E+02   -0.31519E-01   -0.31516E-01 10608   0.208E+00
DAV:   4    -0.149572556339E+02   -0.46409E-04   -0.46409E-04 14040   0.724E-02
DAV:   5    -0.149572556424E+02   -0.84806E-08   -0.90893E-08 10320   0.735E-04    0.234E+00
DAV:   6    -0.149078114365E+02    0.49444E-01   -0.83374E-03 11880   0.283E-01    0.137E+00
DAV:   7    -0.148718674213E+02    0.35944E-01   -0.23606E-02 10128   0.447E-01    0.247E-01
DAV:   8    -0.148717672190E+02    0.10020E-03   -0.80686E-05 14040   0.359E-02    0.145E-02
DAV:   9    -0.148717602651E+02    0.69539E-05   -0.41427E-06 10368   0.547E-03
   1 F= -.14871760E+02 E0= -.14870752E+02  d E =-.148718E+02
