 vasp.6.3.0 20Jan22 (build Feb 10 2022 15:15:41) complex                        
  
 executed on             LinuxIFC date 2023.09.09  16:13:02
 running on   24 total cores
 distrk:  each k-point on   24 cores,    1 groups
 distr:  one band on NCORE=   1 cores,   24 groups


--------------------------------------------------------------------------------------------------------


 INCAR:
   ENCUT = 400
   ISMEAR = 0
   SIGMA = 0.05
   IBRION = 2
   ISIF = 4
   NSW = 100
   EDIFF = 1E-05
   EDIFFG = -0.01

 POTCAR:    PAW_PBE Al 04Jan2001                  
 -----------------------------------------------------------------------------
|                                                                             |
|           W    W    AA    RRRRR   N    N  II  N    N   GGGG   !!!           |
|           W    W   A  A   R    R  NN   N  II  NN   N  G    G  !!!           |
|           W    W  A    A  R    R  N N  N  II  N N  N  G       !!!           |
|           W WW W  AAAAAA  RRRRR   N  N N  II  N  N N  G  GGG   !            |
|           WW  WW  A    A  R   R   N   NN  II  N   NN  G    G                |
|           W    W  A    A  R    R  N    N  II  N    N   GGGG   !!!           |
|                                                                             |
|     For optimal performance we recommend to set                             |
|       NCORE = 2 up to number-of-cores-per-socket                            |
|     NCORE specifies how many cores store one orbital (NPAR=cpu/NCORE).      |
|     This setting can greatly improve the performance of VASP for DFT.       |
|     The default, NCORE=1 might be grossly inefficient on modern             |
|     multi-core architectures or massively parallel machines. Do your        |
|     own testing! More info at https://www.vasp.at/wiki/index.php/NCORE      |
|     Unfortunately you need to use the default for GW and RPA                |
|     calculations (for HF NCORE is supported but not extensively tested      |
|     yet).                                                                   |
|                                                                             |
 -----------------------------------------------------------------------------

 POTCAR:    PAW_PBE Al 04Jan2001                  
   SHA256 =  17880443556af62b473fe41b62a467bd001ad55d2cabe504a3f22e34d4e9db96 Al/POTCAR             
   COPYR  = (c) Copyright 04Jan2001 Georg Kresse                                                    
   COPYR  = This file is part of the software VASP. Any use, copying, and all other rights are regul
   COPYR  = If you do not have a valid VASP license, you may not use, copy or distribute this file. 
   VRHFIN =Al: s2p1                                                                                 
   LEXCH  = PE                                                                                      
   EATOM  =    53.5387 eV,    3.9350 Ry                                                             
                                                                                                    
   TITEL  = PAW_PBE Al 04Jan2001                                                                    
   LULTRA =        F    use ultrasoft PP ?                                                          
   IUNSCR =        1    unscreen: 0-lin 1-nonlin 2-no                                               
   RPACOR =    1.500    partial core radius                                                         
   POMASS =   26.981; ZVAL   =    3.000    mass and valenz                                          
   RCORE  =    1.900    outmost cutoff radius                                                       
   RWIGS  =    2.650; RWIGS  =    1.402    wigner-seitz radius (au A)                               
   ENMAX  =  240.300; ENMIN  =  180.225 eV                                                          
   ICORE  =        2    local potential                                                             
   LCOR   =        T    correct aug charges                                                         
   LPAW   =        T    paw PP                                                                      
   EAUG   =  291.052                                                                                
   DEXC   =    0.000                                                                                
   RMAX   =    1.939    core radius for proj-oper                                                   
   RAUG   =    1.300    factor for augmentation sphere                                              
   RDEP   =    1.966    radius for radial grids                                                     
   RDEPT  =    1.856    core radius for aug-charge                                                  
                                                                                                    
   Atomic configuration                                                                             
    6 entries                                                                                       
     n  l   j            E        occ.                                                              
     1  0  0.50     -1511.1048   2.0000                                                             
     2  0  0.50      -108.1629   2.0000                                                             
     2  1  1.50       -69.6402   6.0000                                                             
     3  0  0.50        -7.7528   2.0000                                                             
     3  1  1.50        -2.7121   1.0000                                                             
     3  2  2.50        -2.7212   0.0000                                                             
   Description                                                                                      
     l       E           TYP  RCUT    TYP  RCUT                                                     
     0     -7.7528455     23  1.900                                                                 
     0     -3.3096929     23  1.900                                                                 
     1     -2.7120682     23  1.900                                                                 
     1     13.6058260     23  1.900                                                                 
     2     -2.7211652      7  1.900                                                                 
  local pseudopotential read in
  partial core-charges read in
  partial kinetic energy density read in
  atomic valenz-charges read in
  non local Contribution for L=           0  read in
    real space projection operators read in
  non local Contribution for L=           0  read in
    real space projection operators read in
  non local Contribution for L=           1  read in
    real space projection operators read in
  non local Contribution for L=           1  read in
    real space projection operators read in
    PAW grid and wavefunctions read in
 
   number of l-projection  operators is LMAX  =           4
   number of lm-projection operators is LMMAX =           8
 
  PAW_PBE Al 04Jan2001                  :
 energy of atom  1       EATOM=  -53.5387
 kinetic energy error for atom=    0.0005 (will be added to EATOM!!)
 
 
 POSCAR: Al4
  positions in direct lattice
  No initial velocities read in
 exchange correlation table for  LEXCH =        8
   RHO(1)=    0.500       N(1)  =     2000
   RHO(2)=  100.500       N(2)  =     4000
 


--------------------------------------------------------------------------------------------------------


 ion  position               nearest neighbor table
   1  0.000  0.000  0.000-   2 2.94   3 2.94   4 2.94   2 2.94   3 2.94   2 2.94   4 2.94   2 2.94
                             3 2.94   4 2.94   3 2.94   4 2.94
   2  0.000  0.500  0.500-   1 2.94   3 2.94   4 2.94   1 2.94   4 2.94   1 2.94   3 2.94   1 2.94
                             3 2.94   4 2.94   4 2.94   3 2.94
   3  0.500  0.000  0.500-   1 2.94   2 2.94   4 2.94   1 2.94   4 2.94   2 2.94   4 2.94   4 2.94
                             1 2.94   2 2.94   1 2.94   2 2.94
   4  0.500  0.500  0.000-   1 2.94   2 2.94   3 2.94   2 2.94   3 2.94   1 2.94   3 2.94   3 2.94
                             1 2.94   2 2.94   2 2.94   1 2.94
 
  LATTYP: Found a simple cubic cell.
 ALAT       =     4.1595655641
  
  Lattice vectors:
  
 A1 = (   4.1595655641,   0.0000000000,   0.0000000000)
 A2 = (   0.0000000000,   4.1595655641,   0.0000000000)
 A3 = (   0.0000000000,   0.0000000000,   4.1595655641)


Analysis of symmetry for initial positions (statically):
=====================================================================
 Subroutine PRICEL returns following result:
 
  LATTYP: Found a face centered cubic cell.
 ALAT       =     4.1595655641
  
  Lattice vectors:
  
 A1 = (   2.0797827821,  -2.0797827821,   0.0000000000)
 A2 = (   2.0797827821,   0.0000000000,   2.0797827821)
 A3 = (   0.0000000000,  -2.0797827821,   2.0797827821)
 
   4 primitive cells build up your supercell.
 

 Routine SETGRP: Setting up the symmetry group for a 
 simple cubic supercell.


 Subroutine GETGRP returns: Found 48 space group operations
 (whereof 48 operations were pure point group operations)
 out of a pool of 48 trial point group operations.


The static configuration has the point symmetry O_h .


Analysis of symmetry for dynamics (positions and initial velocities):
=====================================================================
 Subroutine PRICEL returns following result:
 
  LATTYP: Found a face centered cubic cell.
 ALAT       =     4.1595655641
  
  Lattice vectors:
  
 A1 = (   2.0797827821,  -2.0797827821,   0.0000000000)
 A2 = (   2.0797827821,   0.0000000000,   2.0797827821)
 A3 = (   0.0000000000,  -2.0797827821,   2.0797827821)
 
   4 primitive cells build up your supercell.
 

 Routine SETGRP: Setting up the symmetry group for a 
 simple cubic supercell.


 Subroutine GETGRP returns: Found 48 space group operations
 (whereof 48 operations were pure point group operations)
 out of a pool of 48 trial point group operations.


The dynamic configuration has the point symmetry O_h .


 Subroutine INISYM returns: Found 48 space group operations
 (whereof 48 operations are pure point group operations),
 and found     4 'primitive' translations


----------------------------------------------------------------------------------------

                                     Primitive cell                                     

  volume of cell :      17.9922

  direct lattice vectors                    reciprocal lattice vectors
     2.079782782 -2.079782782  0.000000000     0.240409722 -0.240409722 -0.240409722
     2.079782782  0.000000000  2.079782782     0.240409722  0.240409722  0.240409722
     0.000000000 -2.079782782  2.079782782    -0.240409722 -0.240409722  0.240409722

  length of vectors
     2.941257017  2.941257017  2.941257017     0.416401853  0.416401853  0.416401853

  position of ions in fractional coordinates (direct lattice)
     0.000000000  0.000000000  0.000000000

  ion indices of the primitive-cell ions
   primitive index   ion index
                 1           1

----------------------------------------------------------------------------------------

 
 
 KPOINTS: k-points                                

Automatic generation of k-mesh.
 Grid dimensions read from file:
 generate k-points for:   16   16   16

 Generating k-lattice:

  Cartesian coordinates                     Fractional coordinates (reciprocal lattice)
     0.015025608  0.000000000  0.000000000     0.062500000  0.000000000  0.000000000
     0.000000000  0.015025608  0.000000000     0.000000000  0.062500000  0.000000000
     0.000000000  0.000000000  0.015025608     0.000000000  0.000000000  0.062500000

  Length of vectors
     0.015025608  0.015025608  0.015025608

  Shift w.r.t. Gamma in fractional coordinates (k-lattice)
     0.000000000  0.000000000  0.000000000

 
 Subroutine IBZKPT returns following result:
 ===========================================
 
 Found    165 irreducible k-points:
 
 Following reciprocal coordinates:
            Coordinates               Weight
  0.000000  0.000000  0.000000      1.000000
  0.062500  0.000000  0.000000      6.000000
  0.125000  0.000000  0.000000      6.000000
  0.187500  0.000000  0.000000      6.000000
  0.250000  0.000000  0.000000      6.000000
  0.312500  0.000000  0.000000      6.000000
  0.375000  0.000000  0.000000      6.000000
  0.437500  0.000000  0.000000      6.000000
  0.500000  0.000000  0.000000      3.000000
  0.062500  0.062500  0.000000     12.000000
  0.125000  0.062500  0.000000     24.000000
  0.187500  0.062500  0.000000     24.000000
  0.250000  0.062500  0.000000     24.000000
  0.312500  0.062500  0.000000     24.000000
  0.375000  0.062500  0.000000     24.000000
  0.437500  0.062500  0.000000     24.000000
  0.500000  0.062500  0.000000     12.000000
  0.125000  0.125000  0.000000     12.000000
  0.187500  0.125000  0.000000     24.000000
  0.250000  0.125000  0.000000     24.000000
  0.312500  0.125000  0.000000     24.000000
  0.375000  0.125000  0.000000     24.000000
  0.437500  0.125000  0.000000     24.000000
  0.500000  0.125000  0.000000     12.000000
  0.187500  0.187500  0.000000     12.000000
  0.250000  0.187500  0.000000     24.000000
  0.312500  0.187500  0.000000     24.000000
  0.375000  0.187500  0.000000     24.000000
  0.437500  0.187500  0.000000     24.000000
  0.500000  0.187500  0.000000     12.000000
  0.250000  0.250000  0.000000     12.000000
  0.312500  0.250000  0.000000     24.000000
  0.375000  0.250000  0.000000     24.000000
  0.437500  0.250000  0.000000     24.000000
  0.500000  0.250000  0.000000     12.000000
  0.312500  0.312500  0.000000     12.000000
  0.375000  0.312500  0.000000     24.000000
  0.437500  0.312500  0.000000     24.000000
  0.500000  0.312500  0.000000     12.000000
  0.375000  0.375000  0.000000     12.000000
  0.437500  0.375000  0.000000     24.000000
  0.500000  0.375000  0.000000     12.000000
  0.437500  0.437500  0.000000     12.000000
  0.500000  0.437500  0.000000     12.000000
  0.500000  0.500000  0.000000      3.000000
  0.062500  0.062500  0.062500      8.000000
  0.125000  0.062500  0.062500     24.000000
  0.187500  0.062500  0.062500     24.000000
  0.250000  0.062500  0.062500     24.000000
  0.312500  0.062500  0.062500     24.000000
  0.375000  0.062500  0.062500     24.000000
  0.437500  0.062500  0.062500     24.000000
  0.500000  0.062500  0.062500     12.000000
  0.125000  0.125000  0.062500     24.000000
  0.187500  0.125000  0.062500     48.000000
  0.250000  0.125000  0.062500     48.000000
  0.312500  0.125000  0.062500     48.000000
  0.375000  0.125000  0.062500     48.000000
  0.437500  0.125000  0.062500     48.000000
  0.500000  0.125000  0.062500     24.000000
  0.187500  0.187500  0.062500     24.000000
  0.250000  0.187500  0.062500     48.000000
  0.312500  0.187500  0.062500     48.000000
  0.375000  0.187500  0.062500     48.000000
  0.437500  0.187500  0.062500     48.000000
  0.500000  0.187500  0.062500     24.000000
  0.250000  0.250000  0.062500     24.000000
  0.312500  0.250000  0.062500     48.000000
  0.375000  0.250000  0.062500     48.000000
  0.437500  0.250000  0.062500     48.000000
  0.500000  0.250000  0.062500     24.000000
  0.312500  0.312500  0.062500     24.000000
  0.375000  0.312500  0.062500     48.000000
  0.437500  0.312500  0.062500     48.000000
  0.500000  0.312500  0.062500     24.000000
  0.375000  0.375000  0.062500     24.000000
  0.437500  0.375000  0.062500     48.000000
  0.500000  0.375000  0.062500     24.000000
  0.437500  0.437500  0.062500     24.000000
  0.500000  0.437500  0.062500     24.000000
  0.500000  0.500000  0.062500      6.000000
  0.125000  0.125000  0.125000      8.000000
  0.187500  0.125000  0.125000     24.000000
  0.250000  0.125000  0.125000     24.000000
  0.312500  0.125000  0.125000     24.000000
  0.375000  0.125000  0.125000     24.000000
  0.437500  0.125000  0.125000     24.000000
  0.500000  0.125000  0.125000     12.000000
  0.187500  0.187500  0.125000     24.000000
  0.250000  0.187500  0.125000     48.000000
  0.312500  0.187500  0.125000     48.000000
  0.375000  0.187500  0.125000     48.000000
  0.437500  0.187500  0.125000     48.000000
  0.500000  0.187500  0.125000     24.000000
  0.250000  0.250000  0.125000     24.000000
  0.312500  0.250000  0.125000     48.000000
  0.375000  0.250000  0.125000     48.000000
  0.437500  0.250000  0.125000     48.000000
  0.500000  0.250000  0.125000     24.000000
  0.312500  0.312500  0.125000     24.000000
  0.375000  0.312500  0.125000     48.000000
  0.437500  0.312500  0.125000     48.000000
  0.500000  0.312500  0.125000     24.000000
  0.375000  0.375000  0.125000     24.000000
  0.437500  0.375000  0.125000     48.000000
  0.500000  0.375000  0.125000     24.000000
  0.437500  0.437500  0.125000     24.000000
  0.500000  0.437500  0.125000     24.000000
  0.500000  0.500000  0.125000      6.000000
  0.187500  0.187500  0.187500      8.000000
  0.250000  0.187500  0.187500     24.000000
  0.312500  0.187500  0.187500     24.000000
  0.375000  0.187500  0.187500     24.000000
  0.437500  0.187500  0.187500     24.000000
  0.500000  0.187500  0.187500     12.000000
  0.250000  0.250000  0.187500     24.000000
  0.312500  0.250000  0.187500     48.000000
  0.375000  0.250000  0.187500     48.000000
  0.437500  0.250000  0.187500     48.000000
  0.500000  0.250000  0.187500     24.000000
  0.312500  0.312500  0.187500     24.000000
  0.375000  0.312500  0.187500     48.000000
  0.437500  0.312500  0.187500     48.000000
  0.500000  0.312500  0.187500     24.000000
  0.375000  0.375000  0.187500     24.000000
  0.437500  0.375000  0.187500     48.000000
  0.500000  0.375000  0.187500     24.000000
  0.437500  0.437500  0.187500     24.000000
  0.500000  0.437500  0.187500     24.000000
  0.500000  0.500000  0.187500      6.000000
  0.250000  0.250000  0.250000      8.000000
  0.312500  0.250000  0.250000     24.000000
  0.375000  0.250000  0.250000     24.000000
  0.437500  0.250000  0.250000     24.000000
  0.500000  0.250000  0.250000     12.000000
  0.312500  0.312500  0.250000     24.000000
  0.375000  0.312500  0.250000     48.000000
  0.437500  0.312500  0.250000     48.000000
  0.500000  0.312500  0.250000     24.000000
  0.375000  0.375000  0.250000     24.000000
  0.437500  0.375000  0.250000     48.000000
  0.500000  0.375000  0.250000     24.000000
  0.437500  0.437500  0.250000     24.000000
  0.500000  0.437500  0.250000     24.000000
  0.500000  0.500000  0.250000      6.000000
  0.312500  0.312500  0.312500      8.000000
  0.375000  0.312500  0.312500     24.000000
  0.437500  0.312500  0.312500     24.000000
  0.500000  0.312500  0.312500     12.000000
  0.375000  0.375000  0.312500     24.000000
  0.437500  0.375000  0.312500     48.000000
  0.500000  0.375000  0.312500     24.000000
  0.437500  0.437500  0.312500     24.000000
  0.500000  0.437500  0.312500     24.000000
  0.500000  0.500000  0.312500      6.000000
  0.375000  0.375000  0.375000      8.000000
  0.437500  0.375000  0.375000     24.000000
  0.500000  0.375000  0.375000     12.000000
  0.437500  0.437500  0.375000     24.000000
  0.500000  0.437500  0.375000     24.000000
  0.500000  0.500000  0.375000      6.000000
  0.437500  0.437500  0.437500      8.000000
  0.500000  0.437500  0.437500     12.000000
  0.500000  0.500000  0.437500      6.000000
  0.500000  0.500000  0.500000      1.000000
 
 Following cartesian coordinates:
            Coordinates               Weight
  0.000000  0.000000  0.000000      1.000000
  0.015476  0.000000  0.000000      6.000000
  0.030953  0.000000  0.000000      6.000000
  0.046429  0.000000  0.000000      6.000000
  0.061906  0.000000  0.000000      6.000000
  0.077382  0.000000  0.000000      6.000000
  0.092858  0.000000  0.000000      6.000000
  0.108335  0.000000  0.000000      6.000000
  0.123811  0.000000  0.000000      3.000000
  0.015476  0.015476  0.000000     12.000000
  0.030953  0.015476  0.000000     24.000000
  0.046429  0.015476  0.000000     24.000000
  0.061906  0.015476  0.000000     24.000000
  0.077382  0.015476  0.000000     24.000000
  0.092858  0.015476  0.000000     24.000000
  0.108335  0.015476  0.000000     24.000000
  0.123811  0.015476  0.000000     12.000000
  0.030953  0.030953  0.000000     12.000000
  0.046429  0.030953  0.000000     24.000000
  0.061906  0.030953  0.000000     24.000000
  0.077382  0.030953  0.000000     24.000000
  0.092858  0.030953  0.000000     24.000000
  0.108335  0.030953  0.000000     24.000000
  0.123811  0.030953  0.000000     12.000000
  0.046429  0.046429  0.000000     12.000000
  0.061906  0.046429  0.000000     24.000000
  0.077382  0.046429  0.000000     24.000000
  0.092858  0.046429  0.000000     24.000000
  0.108335  0.046429  0.000000     24.000000
  0.123811  0.046429  0.000000     12.000000
  0.061906  0.061906  0.000000     12.000000
  0.077382  0.061906  0.000000     24.000000
  0.092858  0.061906  0.000000     24.000000
  0.108335  0.061906  0.000000     24.000000
  0.123811  0.061906  0.000000     12.000000
  0.077382  0.077382  0.000000     12.000000
  0.092858  0.077382  0.000000     24.000000
  0.108335  0.077382  0.000000     24.000000
  0.123811  0.077382  0.000000     12.000000
  0.092858  0.092858  0.000000     12.000000
  0.108335  0.092858  0.000000     24.000000
  0.123811  0.092858  0.000000     12.000000
  0.108335  0.108335  0.000000     12.000000
  0.123811  0.108335  0.000000     12.000000
  0.123811  0.123811  0.000000      3.000000
  0.015476  0.015476  0.015476      8.000000
  0.030953  0.015476  0.015476     24.000000
  0.046429  0.015476  0.015476     24.000000
  0.061906  0.015476  0.015476     24.000000
  0.077382  0.015476  0.015476     24.000000
  0.092858  0.015476  0.015476     24.000000
  0.108335  0.015476  0.015476     24.000000
  0.123811  0.015476  0.015476     12.000000
  0.030953  0.030953  0.015476     24.000000
  0.046429  0.030953  0.015476     48.000000
  0.061906  0.030953  0.015476     48.000000
  0.077382  0.030953  0.015476     48.000000
  0.092858  0.030953  0.015476     48.000000
  0.108335  0.030953  0.015476     48.000000
  0.123811  0.030953  0.015476     24.000000
  0.046429  0.046429  0.015476     24.000000
  0.061906  0.046429  0.015476     48.000000
  0.077382  0.046429  0.015476     48.000000
  0.092858  0.046429  0.015476     48.000000
  0.108335  0.046429  0.015476     48.000000
  0.123811  0.046429  0.015476     24.000000
  0.061906  0.061906  0.015476     24.000000
  0.077382  0.061906  0.015476     48.000000
  0.092858  0.061906  0.015476     48.000000
  0.108335  0.061906  0.015476     48.000000
  0.123811  0.061906  0.015476     24.000000
  0.077382  0.077382  0.015476     24.000000
  0.092858  0.077382  0.015476     48.000000
  0.108335  0.077382  0.015476     48.000000
  0.123811  0.077382  0.015476     24.000000
  0.092858  0.092858  0.015476     24.000000
  0.108335  0.092858  0.015476     48.000000
  0.123811  0.092858  0.015476     24.000000
  0.108335  0.108335  0.015476     24.000000
  0.123811  0.108335  0.015476     24.000000
  0.123811  0.123811  0.015476      6.000000
  0.030953  0.030953  0.030953      8.000000
  0.046429  0.030953  0.030953     24.000000
  0.061906  0.030953  0.030953     24.000000
  0.077382  0.030953  0.030953     24.000000
  0.092858  0.030953  0.030953     24.000000
  0.108335  0.030953  0.030953     24.000000
  0.123811  0.030953  0.030953     12.000000
  0.046429  0.046429  0.030953     24.000000
  0.061906  0.046429  0.030953     48.000000
  0.077382  0.046429  0.030953     48.000000
  0.092858  0.046429  0.030953     48.000000
  0.108335  0.046429  0.030953     48.000000
  0.123811  0.046429  0.030953     24.000000
  0.061906  0.061906  0.030953     24.000000
  0.077382  0.061906  0.030953     48.000000
  0.092858  0.061906  0.030953     48.000000
  0.108335  0.061906  0.030953     48.000000
  0.123811  0.061906  0.030953     24.000000
  0.077382  0.077382  0.030953     24.000000
  0.092858  0.077382  0.030953     48.000000
  0.108335  0.077382  0.030953     48.000000
  0.123811  0.077382  0.030953     24.000000
  0.092858  0.092858  0.030953     24.000000
  0.108335  0.092858  0.030953     48.000000
  0.123811  0.092858  0.030953     24.000000
  0.108335  0.108335  0.030953     24.000000
  0.123811  0.108335  0.030953     24.000000
  0.123811  0.123811  0.030953      6.000000
  0.046429  0.046429  0.046429      8.000000
  0.061906  0.046429  0.046429     24.000000
  0.077382  0.046429  0.046429     24.000000
  0.092858  0.046429  0.046429     24.000000
  0.108335  0.046429  0.046429     24.000000
  0.123811  0.046429  0.046429     12.000000
  0.061906  0.061906  0.046429     24.000000
  0.077382  0.061906  0.046429     48.000000
  0.092858  0.061906  0.046429     48.000000
  0.108335  0.061906  0.046429     48.000000
  0.123811  0.061906  0.046429     24.000000
  0.077382  0.077382  0.046429     24.000000
  0.092858  0.077382  0.046429     48.000000
  0.108335  0.077382  0.046429     48.000000
  0.123811  0.077382  0.046429     24.000000
  0.092858  0.092858  0.046429     24.000000
  0.108335  0.092858  0.046429     48.000000
  0.123811  0.092858  0.046429     24.000000
  0.108335  0.108335  0.046429     24.000000
  0.123811  0.108335  0.046429     24.000000
  0.123811  0.123811  0.046429      6.000000
  0.061906  0.061906  0.061906      8.000000
  0.077382  0.061906  0.061906     24.000000
  0.092858  0.061906  0.061906     24.000000
  0.108335  0.061906  0.061906     24.000000
  0.123811  0.061906  0.061906     12.000000
  0.077382  0.077382  0.061906     24.000000
  0.092858  0.077382  0.061906     48.000000
  0.108335  0.077382  0.061906     48.000000
  0.123811  0.077382  0.061906     24.000000
  0.092858  0.092858  0.061906     24.000000
  0.108335  0.092858  0.061906     48.000000
  0.123811  0.092858  0.061906     24.000000
  0.108335  0.108335  0.061906     24.000000
  0.123811  0.108335  0.061906     24.000000
  0.123811  0.123811  0.061906      6.000000
  0.077382  0.077382  0.077382      8.000000
  0.092858  0.077382  0.077382     24.000000
  0.108335  0.077382  0.077382     24.000000
  0.123811  0.077382  0.077382     12.000000
  0.092858  0.092858  0.077382     24.000000
  0.108335  0.092858  0.077382     48.000000
  0.123811  0.092858  0.077382     24.000000
  0.108335  0.108335  0.077382     24.000000
  0.123811  0.108335  0.077382     24.000000
  0.123811  0.123811  0.077382      6.000000
  0.092858  0.092858  0.092858      8.000000
  0.108335  0.092858  0.092858     24.000000
  0.123811  0.092858  0.092858     12.000000
  0.108335  0.108335  0.092858     24.000000
  0.123811  0.108335  0.092858     24.000000
  0.123811  0.123811  0.092858      6.000000
  0.108335  0.108335  0.108335      8.000000
  0.123811  0.108335  0.108335     12.000000
  0.123811  0.123811  0.108335      6.000000
  0.123811  0.123811  0.123811      1.000000
 


--------------------------------------------------------------------------------------------------------




 Dimension of arrays:
   k-points           NKPTS =    165   k-points in BZ     NKDIM =    165   number of bands    NBANDS=     24
   number of dos      NEDOS =    301   number of ions     NIONS =      4
   non local maximal  LDIM  =      4   non local SUM 2l+1 LMDIM =      8
   total plane-waves  NPLWV =   8000
   max r-space proj   IRMAX =      1   max aug-charges    IRDMAX=   4525
   dimension x,y,z NGX =    20 NGY =   20 NGZ =   20
   dimension x,y,z NGXF=    40 NGYF=   40 NGZF=   40
   support grid    NGXF=    40 NGYF=   40 NGZF=   40
   ions per type =               4
   NGX,Y,Z   is equivalent  to a cutoff of   7.99,  7.99,  7.99 a.u.
   NGXF,Y,Z  is equivalent  to a cutoff of  15.99, 15.99, 15.99 a.u.

 SYSTEM =  unknown system                          
 POSCAR =  Al4                                     

 Startparameter for this run:
   NWRITE =      2    write-flag & timer
   PREC   = normal    normal or accurate (medium, high low for compatibility)
   ISTART =      0    job   : 0-new  1-cont  2-samecut
   ICHARG =      2    charge: 1-file 2-atom 10-const
   ISPIN  =      1    spin polarized calculation?
   LNONCOLLINEAR =      F non collinear calculations
   LSORBIT =      F    spin-orbit coupling
   INIWAV =      1    electr: 0-lowe 1-rand  2-diag
   LASPH  =      F    aspherical Exc in radial PAW
 Electronic Relaxation 1
   ENCUT  =  400.0 eV  29.40 Ry    5.42 a.u.   6.78  6.78  6.78*2*pi/ulx,y,z
   ENINI  =  400.0     initial cutoff
   ENAUG  =  291.1 eV  augmentation charge cutoff
   NELM   =     60;   NELMIN=  2; NELMDL= -5     # of ELM steps 
   EDIFF  = 0.1E-04   stopping-criterion for ELM
   LREAL  =      F    real-space projection
   NLSPLINE    = F    spline interpolate recip. space projectors
   LCOMPAT=      F    compatible to vasp.4.4
   GGA_COMPAT  = T    GGA compatible to vasp.4.4-vasp.4.6
   LMAXPAW     = -100 max onsite density
   LMAXMIX     =    2 max onsite mixed and CHGCAR
   VOSKOWN=      0    Vosko Wilk Nusair interpolation
   ROPT   =    0.00000
 Ionic relaxation
   EDIFFG = -.1E-01   stopping-criterion for IOM
   NSW    =    100    number of steps for IOM
   NBLOCK =      1;   KBLOCK =    100    inner block; outer block 
   IBRION =      2    ionic relax: 0-MD 1-quasi-New 2-CG
   NFREE  =      1    steps in history (QN), initial steepest desc. (CG)
   ISIF   =      4    stress and relaxation
   IWAVPR =     11    prediction:  0-non 1-charg 2-wave 3-comb
   ISYM   =      2    0-nonsym 1-usesym 2-fastsym
   LCORR  =      T    Harris-Foulkes like correction to forces

   POTIM  = 0.5000    time-step for ionic-motion
   TEIN   =    0.0    initial temperature
   TEBEG  =    0.0;   TEEND  =   0.0 temperature during run
   SMASS  =  -3.00    Nose mass-parameter (am)
   estimated Nose-frequenzy (Omega)   =  0.10E-29 period in steps = 0.13E+47 mass=  -0.395E-27a.u.
   SCALEE = 1.0000    scale energy and forces
   NPACO  =    256;   APACO  = 10.0  distance and # of slots for P.C.
   PSTRESS=    0.0 pullay stress

  Mass of Ions in am
   POMASS =  26.98
  Ionic Valenz
   ZVAL   =   3.00
  Atomic Wigner-Seitz radii
   RWIGS  =  -1.00
  virtual crystal weights 
   VCA    =   1.00
   NELECT =      12.0000    total number of electrons
   NUPDOWN=      -1.0000    fix difference up-down

 DOS related values:
   EMIN   =  10.00;   EMAX   =-10.00  energy-range for DOS
   EFERMI =   0.00
   ISMEAR =     0;   SIGMA  =   0.05  broadening in eV -4-tet -1-fermi 0-gaus

 Electronic relaxation 2 (details)
   IALGO  =     38    algorithm
   LDIAG  =      T    sub-space diagonalisation (order eigenvalues)
   LSUBROT=      F    optimize rotation matrix (better conditioning)
   TURBO    =      0    0=normal 1=particle mesh
   IRESTART =      0    0=no restart 2=restart with 2 vectors
   NREBOOT  =      0    no. of reboots
   NMIN     =      0    reboot dimension
   EREF     =   0.00    reference energy to select bands
   IMIX   =      4    mixing-type and parameters
     AMIX     =   0.40;   BMIX     =  1.00
     AMIX_MAG =   1.60;   BMIX_MAG =  1.00
     AMIN     =   0.10
     WC   =   100.;   INIMIX=   1;  MIXPRE=   1;  MAXMIX= -45

 Intra band minimization:
   WEIMIN = 0.0010     energy-eigenvalue tresh-hold
   EBREAK =  0.10E-06  absolut break condition
   DEPER  =   0.30     relativ break condition  

   TIME   =   0.40     timestep for ELM

  volume/ion in A,a.u.               =      17.99       121.42
  Fermi-wavevector in a.u.,A,eV,Ry     =   0.901060  1.702757 11.046706  0.811910
  Thomas-Fermi vector in A             =   2.024095
 
 Write flags
   LWAVE        =      T    write WAVECAR
   LDOWNSAMPLE  =      F    k-point downsampling of WAVECAR
   LCHARG       =      T    write CHGCAR
   LVTOT        =      F    write LOCPOT, total local potential
   LVHAR        =      F    write LOCPOT, Hartree potential only
   LELF         =      F    write electronic localiz. function (ELF)
   LORBIT       =      0    0 simple, 1 ext, 2 COOP (PROOUT), +10 PAW based schemes


 Dipole corrections
   LMONO  =      F    monopole corrections only (constant potential shift)
   LDIPOL =      F    correct potential (dipole corrections)
   IDIPOL =      0    1-x, 2-y, 3-z, 4-all directions 
   EPSILON=  1.0000000 bulk dielectric constant

 Exchange correlation treatment:
   GGA     =    --    GGA type
   LEXCH   =     8    internal setting for exchange type
   LIBXC   =     F    Libxc                    
   VOSKOWN =     0    Vosko Wilk Nusair interpolation
   LHFCALC =     F    Hartree Fock is set to
   LHFONE  =     F    Hartree Fock one center treatment
   AEXX    =    0.0000 exact exchange contribution

 Linear response parameters
   LEPSILON=     F    determine dielectric tensor
   LRPA    =     F    only Hartree local field effects (RPA)
   LNABLA  =     F    use nabla operator in PAW spheres
   LVEL    =     F    velocity operator in full k-point grid
   CSHIFT  =0.1000    complex shift for real part using Kramers Kronig
   OMEGAMAX=  -1.0    maximum frequency
   DEG_THRESHOLD= 0.2000000E-02 threshold for treating states as degnerate
   RTIME   =   -0.100 relaxation time in fs
  (WPLASMAI=    0.000 imaginary part of plasma frequency in eV, 0.658/RTIME)
   DFIELD  = 0.0000000 0.0000000 0.0000000 field for delta impulse in time
 
  Optional k-point grid parameters
   LKPOINTS_OPT  =     F    use optional k-point grid
   KPOINTS_OPT_MODE=     1    mode for optional k-point grid
 
 Orbital magnetization related:
   ORBITALMAG=     F  switch on orbital magnetization
   LCHIMAG   =     F  perturbation theory with respect to B field
   DQ        =  0.001000  dq finite difference perturbation B field
   LLRAUG    =     F  two centre corrections for induced B field



--------------------------------------------------------------------------------------------------------


 conjugate gradient relaxation of ions
 charge density and potential will be updated during run
 non-spin polarized calculation
 Variant of blocked Davidson
 Davidson routine will perform the subspace rotation
 perform sub-space diagonalisation
    after iterative eigenvector-optimisation
 modified Broyden-mixing scheme, WC =      100.0
 initial mixing is a Kerker type mixing with AMIX =  0.4000 and BMIX =      1.0000
 Hartree-type preconditioning will be used
 using additional bands           18
 reciprocal scheme for non local part
 use partial core corrections
 calculate Harris-corrections to forces 
   (improved forces if not selfconsistent)
 use gradient corrections 
 use of overlap-Matrix (Vanderbilt PP)
 Gauss-broadening in eV      SIGMA  =   0.05


--------------------------------------------------------------------------------------------------------


  energy-cutoff  :      400.00
  volume of cell :       71.97
      direct lattice vectors                 reciprocal lattice vectors
     4.159565564  0.000000000  0.000000000     0.240409722  0.000000000  0.000000000
     0.000000000  4.159565564  0.000000000     0.000000000  0.240409722  0.000000000
     0.000000000  0.000000000  4.159565564     0.000000000  0.000000000  0.240409722

  length of vectors
     4.159565564  4.159565564  4.159565564     0.240409722  0.240409722  0.240409722


 
 k-points in units of 2pi/SCALE and weight: k-points                                
   0.00000000  0.00000000  0.00000000       0.000
   0.01547638  0.00000000  0.00000000       0.001
   0.03095275  0.00000000  0.00000000       0.001
   0.04642913  0.00000000  0.00000000       0.001
   0.06190550  0.00000000  0.00000000       0.001
   0.07738188  0.00000000  0.00000000       0.001
   0.09285826  0.00000000  0.00000000       0.001
   0.10833463  0.00000000  0.00000000       0.001
   0.12381101  0.00000000  0.00000000       0.001
   0.01547638  0.01547638  0.00000000       0.003
   0.03095275  0.01547638  0.00000000       0.006
   0.04642913  0.01547638  0.00000000       0.006
   0.06190550  0.01547638  0.00000000       0.006
   0.07738188  0.01547638  0.00000000       0.006
   0.09285826  0.01547638  0.00000000       0.006
   0.10833463  0.01547638  0.00000000       0.006
   0.12381101  0.01547638  0.00000000       0.003
   0.03095275  0.03095275  0.00000000       0.003
   0.04642913  0.03095275  0.00000000       0.006
   0.06190550  0.03095275  0.00000000       0.006
   0.07738188  0.03095275  0.00000000       0.006
   0.09285826  0.03095275  0.00000000       0.006
   0.10833463  0.03095275  0.00000000       0.006
   0.12381101  0.03095275  0.00000000       0.003
   0.04642913  0.04642913  0.00000000       0.003
   0.06190550  0.04642913  0.00000000       0.006
   0.07738188  0.04642913  0.00000000       0.006
   0.09285826  0.04642913  0.00000000       0.006
   0.10833463  0.04642913  0.00000000       0.006
   0.12381101  0.04642913  0.00000000       0.003
   0.06190550  0.06190550  0.00000000       0.003
   0.07738188  0.06190550  0.00000000       0.006
   0.09285826  0.06190550  0.00000000       0.006
   0.10833463  0.06190550  0.00000000       0.006
   0.12381101  0.06190550  0.00000000       0.003
   0.07738188  0.07738188  0.00000000       0.003
   0.09285826  0.07738188  0.00000000       0.006
   0.10833463  0.07738188  0.00000000       0.006
   0.12381101  0.07738188  0.00000000       0.003
   0.09285826  0.09285826  0.00000000       0.003
   0.10833463  0.09285826  0.00000000       0.006
   0.12381101  0.09285826  0.00000000       0.003
   0.10833463  0.10833463  0.00000000       0.003
   0.12381101  0.10833463  0.00000000       0.003
   0.12381101  0.12381101  0.00000000       0.001
   0.01547638  0.01547638  0.01547638       0.002
   0.03095275  0.01547638  0.01547638       0.006
   0.04642913  0.01547638  0.01547638       0.006
   0.06190550  0.01547638  0.01547638       0.006
   0.07738188  0.01547638  0.01547638       0.006
   0.09285826  0.01547638  0.01547638       0.006
   0.10833463  0.01547638  0.01547638       0.006
   0.12381101  0.01547638  0.01547638       0.003
   0.03095275  0.03095275  0.01547638       0.006
   0.04642913  0.03095275  0.01547638       0.012
   0.06190550  0.03095275  0.01547638       0.012
   0.07738188  0.03095275  0.01547638       0.012
   0.09285826  0.03095275  0.01547638       0.012
   0.10833463  0.03095275  0.01547638       0.012
   0.12381101  0.03095275  0.01547638       0.006
   0.04642913  0.04642913  0.01547638       0.006
   0.06190550  0.04642913  0.01547638       0.012
   0.07738188  0.04642913  0.01547638       0.012
   0.09285826  0.04642913  0.01547638       0.012
   0.10833463  0.04642913  0.01547638       0.012
   0.12381101  0.04642913  0.01547638       0.006
   0.06190550  0.06190550  0.01547638       0.006
   0.07738188  0.06190550  0.01547638       0.012
   0.09285826  0.06190550  0.01547638       0.012
   0.10833463  0.06190550  0.01547638       0.012
   0.12381101  0.06190550  0.01547638       0.006
   0.07738188  0.07738188  0.01547638       0.006
   0.09285826  0.07738188  0.01547638       0.012
   0.10833463  0.07738188  0.01547638       0.012
   0.12381101  0.07738188  0.01547638       0.006
   0.09285826  0.09285826  0.01547638       0.006
   0.10833463  0.09285826  0.01547638       0.012
   0.12381101  0.09285826  0.01547638       0.006
   0.10833463  0.10833463  0.01547638       0.006
   0.12381101  0.10833463  0.01547638       0.006
   0.12381101  0.12381101  0.01547638       0.001
   0.03095275  0.03095275  0.03095275       0.002
   0.04642913  0.03095275  0.03095275       0.006
   0.06190550  0.03095275  0.03095275       0.006
   0.07738188  0.03095275  0.03095275       0.006
   0.09285826  0.03095275  0.03095275       0.006
   0.10833463  0.03095275  0.03095275       0.006
   0.12381101  0.03095275  0.03095275       0.003
   0.04642913  0.04642913  0.03095275       0.006
   0.06190550  0.04642913  0.03095275       0.012
   0.07738188  0.04642913  0.03095275       0.012
   0.09285826  0.04642913  0.03095275       0.012
   0.10833463  0.04642913  0.03095275       0.012
   0.12381101  0.04642913  0.03095275       0.006
   0.06190550  0.06190550  0.03095275       0.006
   0.07738188  0.06190550  0.03095275       0.012
   0.09285826  0.06190550  0.03095275       0.012
   0.10833463  0.06190550  0.03095275       0.012
   0.12381101  0.06190550  0.03095275       0.006
   0.07738188  0.07738188  0.03095275       0.006
   0.09285826  0.07738188  0.03095275       0.012
   0.10833463  0.07738188  0.03095275       0.012
   0.12381101  0.07738188  0.03095275       0.006
   0.09285826  0.09285826  0.03095275       0.006
   0.10833463  0.09285826  0.03095275       0.012
   0.12381101  0.09285826  0.03095275       0.006
   0.10833463  0.10833463  0.03095275       0.006
   0.12381101  0.10833463  0.03095275       0.006
   0.12381101  0.12381101  0.03095275       0.001
   0.04642913  0.04642913  0.04642913       0.002
   0.06190550  0.04642913  0.04642913       0.006
   0.07738188  0.04642913  0.04642913       0.006
   0.09285826  0.04642913  0.04642913       0.006
   0.10833463  0.04642913  0.04642913       0.006
   0.12381101  0.04642913  0.04642913       0.003
   0.06190550  0.06190550  0.04642913       0.006
   0.07738188  0.06190550  0.04642913       0.012
   0.09285826  0.06190550  0.04642913       0.012
   0.10833463  0.06190550  0.04642913       0.012
   0.12381101  0.06190550  0.04642913       0.006
   0.07738188  0.07738188  0.04642913       0.006
   0.09285826  0.07738188  0.04642913       0.012
   0.10833463  0.07738188  0.04642913       0.012
   0.12381101  0.07738188  0.04642913       0.006
   0.09285826  0.09285826  0.04642913       0.006
   0.10833463  0.09285826  0.04642913       0.012
   0.12381101  0.09285826  0.04642913       0.006
   0.10833463  0.10833463  0.04642913       0.006
   0.12381101  0.10833463  0.04642913       0.006
   0.12381101  0.12381101  0.04642913       0.001
   0.06190550  0.06190550  0.06190550       0.002
   0.07738188  0.06190550  0.06190550       0.006
   0.09285826  0.06190550  0.06190550       0.006
   0.10833463  0.06190550  0.06190550       0.006
   0.12381101  0.06190550  0.06190550       0.003
   0.07738188  0.07738188  0.06190550       0.006
   0.09285826  0.07738188  0.06190550       0.012
   0.10833463  0.07738188  0.06190550       0.012
   0.12381101  0.07738188  0.06190550       0.006
   0.09285826  0.09285826  0.06190550       0.006
   0.10833463  0.09285826  0.06190550       0.012
   0.12381101  0.09285826  0.06190550       0.006
   0.10833463  0.10833463  0.06190550       0.006
   0.12381101  0.10833463  0.06190550       0.006
   0.12381101  0.12381101  0.06190550       0.001
   0.07738188  0.07738188  0.07738188       0.002
   0.09285826  0.07738188  0.07738188       0.006
   0.10833463  0.07738188  0.07738188       0.006
   0.12381101  0.07738188  0.07738188       0.003
   0.09285826  0.09285826  0.07738188       0.006
   0.10833463  0.09285826  0.07738188       0.012
   0.12381101  0.09285826  0.07738188       0.006
   0.10833463  0.10833463  0.07738188       0.006
   0.12381101  0.10833463  0.07738188       0.006
   0.12381101  0.12381101  0.07738188       0.001
   0.09285826  0.09285826  0.09285826       0.002
   0.10833463  0.09285826  0.09285826       0.006
   0.12381101  0.09285826  0.09285826       0.003
   0.10833463  0.10833463  0.09285826       0.006
   0.12381101  0.10833463  0.09285826       0.006
   0.12381101  0.12381101  0.09285826       0.001
   0.10833463  0.10833463  0.10833463       0.002
   0.12381101  0.10833463  0.10833463       0.003
   0.12381101  0.12381101  0.10833463       0.001
   0.12381101  0.12381101  0.12381101       0.000
 
 k-points in reciprocal lattice and weights: k-points                                
   0.00000000  0.00000000  0.00000000       0.000
   0.06250000  0.00000000  0.00000000       0.001
   0.12500000  0.00000000  0.00000000       0.001
   0.18750000  0.00000000  0.00000000       0.001
   0.25000000  0.00000000  0.00000000       0.001
   0.31250000  0.00000000  0.00000000       0.001
   0.37500000  0.00000000  0.00000000       0.001
   0.43750000  0.00000000  0.00000000       0.001
   0.50000000  0.00000000  0.00000000       0.001
   0.06250000  0.06250000  0.00000000       0.003
   0.12500000  0.06250000  0.00000000       0.006
   0.18750000  0.06250000  0.00000000       0.006
   0.25000000  0.06250000  0.00000000       0.006
   0.31250000  0.06250000  0.00000000       0.006
   0.37500000  0.06250000  0.00000000       0.006
   0.43750000  0.06250000  0.00000000       0.006
   0.50000000  0.06250000  0.00000000       0.003
   0.12500000  0.12500000  0.00000000       0.003
   0.18750000  0.12500000  0.00000000       0.006
   0.25000000  0.12500000  0.00000000       0.006
   0.31250000  0.12500000  0.00000000       0.006
   0.37500000  0.12500000  0.00000000       0.006
   0.43750000  0.12500000  0.00000000       0.006
   0.50000000  0.12500000  0.00000000       0.003
   0.18750000  0.18750000  0.00000000       0.003
   0.25000000  0.18750000  0.00000000       0.006
   0.31250000  0.18750000  0.00000000       0.006
   0.37500000  0.18750000  0.00000000       0.006
   0.43750000  0.18750000  0.00000000       0.006
   0.50000000  0.18750000  0.00000000       0.003
   0.25000000  0.25000000  0.00000000       0.003
   0.31250000  0.25000000  0.00000000       0.006
   0.37500000  0.25000000  0.00000000       0.006
   0.43750000  0.25000000  0.00000000       0.006
   0.50000000  0.25000000  0.00000000       0.003
   0.31250000  0.31250000  0.00000000       0.003
   0.37500000  0.31250000  0.00000000       0.006
   0.43750000  0.31250000  0.00000000       0.006
   0.50000000  0.31250000  0.00000000       0.003
   0.37500000  0.37500000  0.00000000       0.003
   0.43750000  0.37500000  0.00000000       0.006
   0.50000000  0.37500000  0.00000000       0.003
   0.43750000  0.43750000  0.00000000       0.003
   0.50000000  0.43750000  0.00000000       0.003
   0.50000000  0.50000000  0.00000000       0.001
   0.06250000  0.06250000  0.06250000       0.002
   0.12500000  0.06250000  0.06250000       0.006
   0.18750000  0.06250000  0.06250000       0.006
   0.25000000  0.06250000  0.06250000       0.006
   0.31250000  0.06250000  0.06250000       0.006
   0.37500000  0.06250000  0.06250000       0.006
   0.43750000  0.06250000  0.06250000       0.006
   0.50000000  0.06250000  0.06250000       0.003
   0.12500000  0.12500000  0.06250000       0.006
   0.18750000  0.12500000  0.06250000       0.012
   0.25000000  0.12500000  0.06250000       0.012
   0.31250000  0.12500000  0.06250000       0.012
   0.37500000  0.12500000  0.06250000       0.012
   0.43750000  0.12500000  0.06250000       0.012
   0.50000000  0.12500000  0.06250000       0.006
   0.18750000  0.18750000  0.06250000       0.006
   0.25000000  0.18750000  0.06250000       0.012
   0.31250000  0.18750000  0.06250000       0.012
   0.37500000  0.18750000  0.06250000       0.012
   0.43750000  0.18750000  0.06250000       0.012
   0.50000000  0.18750000  0.06250000       0.006
   0.25000000  0.25000000  0.06250000       0.006
   0.31250000  0.25000000  0.06250000       0.012
   0.37500000  0.25000000  0.06250000       0.012
   0.43750000  0.25000000  0.06250000       0.012
   0.50000000  0.25000000  0.06250000       0.006
   0.31250000  0.31250000  0.06250000       0.006
   0.37500000  0.31250000  0.06250000       0.012
   0.43750000  0.31250000  0.06250000       0.012
   0.50000000  0.31250000  0.06250000       0.006
   0.37500000  0.37500000  0.06250000       0.006
   0.43750000  0.37500000  0.06250000       0.012
   0.50000000  0.37500000  0.06250000       0.006
   0.43750000  0.43750000  0.06250000       0.006
   0.50000000  0.43750000  0.06250000       0.006
   0.50000000  0.50000000  0.06250000       0.001
   0.12500000  0.12500000  0.12500000       0.002
   0.18750000  0.12500000  0.12500000       0.006
   0.25000000  0.12500000  0.12500000       0.006
   0.31250000  0.12500000  0.12500000       0.006
   0.37500000  0.12500000  0.12500000       0.006
   0.43750000  0.12500000  0.12500000       0.006
   0.50000000  0.12500000  0.12500000       0.003
   0.18750000  0.18750000  0.12500000       0.006
   0.25000000  0.18750000  0.12500000       0.012
   0.31250000  0.18750000  0.12500000       0.012
   0.37500000  0.18750000  0.12500000       0.012
   0.43750000  0.18750000  0.12500000       0.012
   0.50000000  0.18750000  0.12500000       0.006
   0.25000000  0.25000000  0.12500000       0.006
   0.31250000  0.25000000  0.12500000       0.012
   0.37500000  0.25000000  0.12500000       0.012
   0.43750000  0.25000000  0.12500000       0.012
   0.50000000  0.25000000  0.12500000       0.006
   0.31250000  0.31250000  0.12500000       0.006
   0.37500000  0.31250000  0.12500000       0.012
   0.43750000  0.31250000  0.12500000       0.012
   0.50000000  0.31250000  0.12500000       0.006
   0.37500000  0.37500000  0.12500000       0.006
   0.43750000  0.37500000  0.12500000       0.012
   0.50000000  0.37500000  0.12500000       0.006
   0.43750000  0.43750000  0.12500000       0.006
   0.50000000  0.43750000  0.12500000       0.006
   0.50000000  0.50000000  0.12500000       0.001
   0.18750000  0.18750000  0.18750000       0.002
   0.25000000  0.18750000  0.18750000       0.006
   0.31250000  0.18750000  0.18750000       0.006
   0.37500000  0.18750000  0.18750000       0.006
   0.43750000  0.18750000  0.18750000       0.006
   0.50000000  0.18750000  0.18750000       0.003
   0.25000000  0.25000000  0.18750000       0.006
   0.31250000  0.25000000  0.18750000       0.012
   0.37500000  0.25000000  0.18750000       0.012
   0.43750000  0.25000000  0.18750000       0.012
   0.50000000  0.25000000  0.18750000       0.006
   0.31250000  0.31250000  0.18750000       0.006
   0.37500000  0.31250000  0.18750000       0.012
   0.43750000  0.31250000  0.18750000       0.012
   0.50000000  0.31250000  0.18750000       0.006
   0.37500000  0.37500000  0.18750000       0.006
   0.43750000  0.37500000  0.18750000       0.012
   0.50000000  0.37500000  0.18750000       0.006
   0.43750000  0.43750000  0.18750000       0.006
   0.50000000  0.43750000  0.18750000       0.006
   0.50000000  0.50000000  0.18750000       0.001
   0.25000000  0.25000000  0.25000000       0.002
   0.31250000  0.25000000  0.25000000       0.006
   0.37500000  0.25000000  0.25000000       0.006
   0.43750000  0.25000000  0.25000000       0.006
   0.50000000  0.25000000  0.25000000       0.003
   0.31250000  0.31250000  0.25000000       0.006
   0.37500000  0.31250000  0.25000000       0.012
   0.43750000  0.31250000  0.25000000       0.012
   0.50000000  0.31250000  0.25000000       0.006
   0.37500000  0.37500000  0.25000000       0.006
   0.43750000  0.37500000  0.25000000       0.012
   0.50000000  0.37500000  0.25000000       0.006
   0.43750000  0.43750000  0.25000000       0.006
   0.50000000  0.43750000  0.25000000       0.006
   0.50000000  0.50000000  0.25000000       0.001
   0.31250000  0.31250000  0.31250000       0.002
   0.37500000  0.31250000  0.31250000       0.006
   0.43750000  0.31250000  0.31250000       0.006
   0.50000000  0.31250000  0.31250000       0.003
   0.37500000  0.37500000  0.31250000       0.006
   0.43750000  0.37500000  0.31250000       0.012
   0.50000000  0.37500000  0.31250000       0.006
   0.43750000  0.43750000  0.31250000       0.006
   0.50000000  0.43750000  0.31250000       0.006
   0.50000000  0.50000000  0.31250000       0.001
   0.37500000  0.37500000  0.37500000       0.002
   0.43750000  0.37500000  0.37500000       0.006
   0.50000000  0.37500000  0.37500000       0.003
   0.43750000  0.43750000  0.37500000       0.006
   0.50000000  0.43750000  0.37500000       0.006
   0.50000000  0.50000000  0.37500000       0.001
   0.43750000  0.43750000  0.43750000       0.002
   0.50000000  0.43750000  0.43750000       0.003
   0.50000000  0.50000000  0.43750000       0.001
   0.50000000  0.50000000  0.50000000       0.000
 
 position of ions in fractional coordinates (direct lattice) 
   0.00000000  0.00000000  0.00000000
   0.00000000  0.50000000  0.50000000
   0.50000000  0.00000000  0.50000000
   0.50000000  0.50000000  0.00000000
 
 position of ions in cartesian coordinates  (Angst):
   0.00000000  0.00000000  0.00000000
   0.00000000  2.07978278  2.07978278
   2.07978278  0.00000000  2.07978278
   2.07978278  2.07978278  0.00000000
 


--------------------------------------------------------------------------------------------------------


 k-point   1 :   0.0000 0.0000 0.0000  plane waves:    1357
 k-point   2 :   0.0625 0.0000 0.0000  plane waves:    1333
 k-point   3 :   0.1250 0.0000 0.0000  plane waves:    1313
 k-point   4 :   0.1875 0.0000 0.0000  plane waves:    1305
 k-point   5 :   0.2500 0.0000 0.0000  plane waves:    1298
 k-point   6 :   0.3125 0.0000 0.0000  plane waves:    1310
 k-point   7 :   0.3750 0.0000 0.0000  plane waves:    1314
 k-point   8 :   0.4375 0.0000 0.0000  plane waves:    1310
 k-point   9 :   0.5000 0.0000 0.0000  plane waves:    1278
 k-point  10 :   0.0625 0.0625 0.0000  plane waves:    1327
 k-point  11 :   0.1250 0.0625 0.0000  plane waves:    1312
 k-point  12 :   0.1875 0.0625 0.0000  plane waves:    1302
 k-point  13 :   0.2500 0.0625 0.0000  plane waves:    1309
 k-point  14 :   0.3125 0.0625 0.0000  plane waves:    1312
 k-point  15 :   0.3750 0.0625 0.0000  plane waves:    1305
 k-point  16 :   0.4375 0.0625 0.0000  plane waves:    1294
 k-point  17 :   0.5000 0.0625 0.0000  plane waves:    1302
 k-point  18 :   0.1250 0.1250 0.0000  plane waves:    1311
 k-point  19 :   0.1875 0.1250 0.0000  plane waves:    1306
 k-point  20 :   0.2500 0.1250 0.0000  plane waves:    1303
 k-point  21 :   0.3125 0.1250 0.0000  plane waves:    1310
 k-point  22 :   0.3750 0.1250 0.0000  plane waves:    1304
 k-point  23 :   0.4375 0.1250 0.0000  plane waves:    1309
 k-point  24 :   0.5000 0.1250 0.0000  plane waves:    1288
 k-point  25 :   0.1875 0.1875 0.0000  plane waves:    1303
 k-point  26 :   0.2500 0.1875 0.0000  plane waves:    1304
 k-point  27 :   0.3125 0.1875 0.0000  plane waves:    1307
 k-point  28 :   0.3750 0.1875 0.0000  plane waves:    1304
 k-point  29 :   0.4375 0.1875 0.0000  plane waves:    1306
 k-point  30 :   0.5000 0.1875 0.0000  plane waves:    1304
 k-point  31 :   0.2500 0.2500 0.0000  plane waves:    1298
 k-point  32 :   0.3125 0.2500 0.0000  plane waves:    1307
 k-point  33 :   0.3750 0.2500 0.0000  plane waves:    1313
 k-point  34 :   0.4375 0.2500 0.0000  plane waves:    1315
 k-point  35 :   0.5000 0.2500 0.0000  plane waves:    1304
 k-point  36 :   0.3125 0.3125 0.0000  plane waves:    1308
 k-point  37 :   0.3750 0.3125 0.0000  plane waves:    1307
 k-point  38 :   0.4375 0.3125 0.0000  plane waves:    1309
 k-point  39 :   0.5000 0.3125 0.0000  plane waves:    1302
 k-point  40 :   0.3750 0.3750 0.0000  plane waves:    1300
 k-point  41 :   0.4375 0.3750 0.0000  plane waves:    1309
 k-point  42 :   0.5000 0.3750 0.0000  plane waves:    1306
 k-point  43 :   0.4375 0.4375 0.0000  plane waves:    1312
 k-point  44 :   0.5000 0.4375 0.0000  plane waves:    1308
 k-point  45 :   0.5000 0.5000 0.0000  plane waves:    1308
 k-point  46 :   0.0625 0.0625 0.0625  plane waves:    1321
 k-point  47 :   0.1250 0.0625 0.0625  plane waves:    1312
 k-point  48 :   0.1875 0.0625 0.0625  plane waves:    1305
 k-point  49 :   0.2500 0.0625 0.0625  plane waves:    1304
 k-point  50 :   0.3125 0.0625 0.0625  plane waves:    1308
 k-point  51 :   0.3750 0.0625 0.0625  plane waves:    1306
 k-point  52 :   0.4375 0.0625 0.0625  plane waves:    1298
 k-point  53 :   0.5000 0.0625 0.0625  plane waves:    1302
 k-point  54 :   0.1250 0.1250 0.0625  plane waves:    1310
 k-point  55 :   0.1875 0.1250 0.0625  plane waves:    1304
 k-point  56 :   0.2500 0.1250 0.0625  plane waves:    1305
 k-point  57 :   0.3125 0.1250 0.0625  plane waves:    1311
 k-point  58 :   0.3750 0.1250 0.0625  plane waves:    1308
 k-point  59 :   0.4375 0.1250 0.0625  plane waves:    1307
 k-point  60 :   0.5000 0.1250 0.0625  plane waves:    1300
 k-point  61 :   0.1875 0.1875 0.0625  plane waves:    1306
 k-point  62 :   0.2500 0.1875 0.0625  plane waves:    1306
 k-point  63 :   0.3125 0.1875 0.0625  plane waves:    1312
 k-point  64 :   0.3750 0.1875 0.0625  plane waves:    1309
 k-point  65 :   0.4375 0.1875 0.0625  plane waves:    1309
 k-point  66 :   0.5000 0.1875 0.0625  plane waves:    1304
 k-point  67 :   0.2500 0.2500 0.0625  plane waves:    1313
 k-point  68 :   0.3125 0.2500 0.0625  plane waves:    1307
 k-point  69 :   0.3750 0.2500 0.0625  plane waves:    1314
 k-point  70 :   0.4375 0.2500 0.0625  plane waves:    1309
 k-point  71 :   0.5000 0.2500 0.0625  plane waves:    1300
 k-point  72 :   0.3125 0.3125 0.0625  plane waves:    1306
 k-point  73 :   0.3750 0.3125 0.0625  plane waves:    1305
 k-point  74 :   0.4375 0.3125 0.0625  plane waves:    1306
 k-point  75 :   0.5000 0.3125 0.0625  plane waves:    1304
 k-point  76 :   0.3750 0.3750 0.0625  plane waves:    1306
 k-point  77 :   0.4375 0.3750 0.0625  plane waves:    1309
 k-point  78 :   0.5000 0.3750 0.0625  plane waves:    1306
 k-point  79 :   0.4375 0.4375 0.0625  plane waves:    1310
 k-point  80 :   0.5000 0.4375 0.0625  plane waves:    1306
 k-point  81 :   0.5000 0.5000 0.0625  plane waves:    1308
 k-point  82 :   0.1250 0.1250 0.1250  plane waves:    1313
 k-point  83 :   0.1875 0.1250 0.1250  plane waves:    1306
 k-point  84 :   0.2500 0.1250 0.1250  plane waves:    1306
 k-point  85 :   0.3125 0.1250 0.1250  plane waves:    1312
 k-point  86 :   0.3750 0.1250 0.1250  plane waves:    1313
 k-point  87 :   0.4375 0.1250 0.1250  plane waves:    1307
 k-point  88 :   0.5000 0.1250 0.1250  plane waves:    1300
 k-point  89 :   0.1875 0.1875 0.1250  plane waves:    1304
 k-point  90 :   0.2500 0.1875 0.1250  plane waves:    1314
 k-point  91 :   0.3125 0.1875 0.1250  plane waves:    1306
 k-point  92 :   0.3750 0.1875 0.1250  plane waves:    1306
 k-point  93 :   0.4375 0.1875 0.1250  plane waves:    1309
 k-point  94 :   0.5000 0.1875 0.1250  plane waves:    1300
 k-point  95 :   0.2500 0.2500 0.1250  plane waves:    1309
 k-point  96 :   0.3125 0.2500 0.1250  plane waves:    1306
 k-point  97 :   0.3750 0.2500 0.1250  plane waves:    1310
 k-point  98 :   0.4375 0.2500 0.1250  plane waves:    1301
 k-point  99 :   0.5000 0.2500 0.1250  plane waves:    1304
 k-point 100 :   0.3125 0.3125 0.1250  plane waves:    1309
 k-point 101 :   0.3750 0.3125 0.1250  plane waves:    1313
 k-point 102 :   0.4375 0.3125 0.1250  plane waves:    1304
 k-point 103 :   0.5000 0.3125 0.1250  plane waves:    1312
 k-point 104 :   0.3750 0.3750 0.1250  plane waves:    1305
 k-point 105 :   0.4375 0.3750 0.1250  plane waves:    1303
 k-point 106 :   0.5000 0.3750 0.1250  plane waves:    1304
 k-point 107 :   0.4375 0.4375 0.1250  plane waves:    1303
 k-point 108 :   0.5000 0.4375 0.1250  plane waves:    1304
 k-point 109 :   0.5000 0.5000 0.1250  plane waves:    1292
 k-point 110 :   0.1875 0.1875 0.1875  plane waves:    1304
 k-point 111 :   0.2500 0.1875 0.1875  plane waves:    1309
 k-point 112 :   0.3125 0.1875 0.1875  plane waves:    1299
 k-point 113 :   0.3750 0.1875 0.1875  plane waves:    1300
 k-point 114 :   0.4375 0.1875 0.1875  plane waves:    1301
 k-point 115 :   0.5000 0.1875 0.1875  plane waves:    1300
 k-point 116 :   0.2500 0.2500 0.1875  plane waves:    1300
 k-point 117 :   0.3125 0.2500 0.1875  plane waves:    1300
 k-point 118 :   0.3750 0.2500 0.1875  plane waves:    1306
 k-point 119 :   0.4375 0.2500 0.1875  plane waves:    1304
 k-point 120 :   0.5000 0.2500 0.1875  plane waves:    1308
 k-point 121 :   0.3125 0.3125 0.1875  plane waves:    1311
 k-point 122 :   0.3750 0.3125 0.1875  plane waves:    1306
 k-point 123 :   0.4375 0.3125 0.1875  plane waves:    1309
 k-point 124 :   0.5000 0.3125 0.1875  plane waves:    1314
 k-point 125 :   0.3750 0.3750 0.1875  plane waves:    1306
 k-point 126 :   0.4375 0.3750 0.1875  plane waves:    1312
 k-point 127 :   0.5000 0.3750 0.1875  plane waves:    1304
 k-point 128 :   0.4375 0.4375 0.1875  plane waves:    1302
 k-point 129 :   0.5000 0.4375 0.1875  plane waves:    1310
 k-point 130 :   0.5000 0.5000 0.1875  plane waves:    1316
 k-point 131 :   0.2500 0.2500 0.2500  plane waves:    1304
 k-point 132 :   0.3125 0.2500 0.2500  plane waves:    1299
 k-point 133 :   0.3750 0.2500 0.2500  plane waves:    1292
 k-point 134 :   0.4375 0.2500 0.2500  plane waves:    1304
 k-point 135 :   0.5000 0.2500 0.2500  plane waves:    1324
 k-point 136 :   0.3125 0.3125 0.2500  plane waves:    1300
 k-point 137 :   0.3750 0.3125 0.2500  plane waves:    1301
 k-point 138 :   0.4375 0.3125 0.2500  plane waves:    1307
 k-point 139 :   0.5000 0.3125 0.2500  plane waves:    1308
 k-point 140 :   0.3750 0.3750 0.2500  plane waves:    1303
 k-point 141 :   0.4375 0.3750 0.2500  plane waves:    1307
 k-point 142 :   0.5000 0.3750 0.2500  plane waves:    1314
 k-point 143 :   0.4375 0.4375 0.2500  plane waves:    1313
 k-point 144 :   0.5000 0.4375 0.2500  plane waves:    1320
 k-point 145 :   0.5000 0.5000 0.2500  plane waves:    1312
 k-point 146 :   0.3125 0.3125 0.3125  plane waves:    1301
 k-point 147 :   0.3750 0.3125 0.3125  plane waves:    1307
 k-point 148 :   0.4375 0.3125 0.3125  plane waves:    1316
 k-point 149 :   0.5000 0.3125 0.3125  plane waves:    1312
 k-point 150 :   0.3750 0.3750 0.3125  plane waves:    1318
 k-point 151 :   0.4375 0.3750 0.3125  plane waves:    1313
 k-point 152 :   0.5000 0.3750 0.3125  plane waves:    1316
 k-point 153 :   0.4375 0.4375 0.3125  plane waves:    1318
 k-point 154 :   0.5000 0.4375 0.3125  plane waves:    1312
 k-point 155 :   0.5000 0.5000 0.3125  plane waves:    1308
 k-point 156 :   0.3750 0.3750 0.3750  plane waves:    1319
 k-point 157 :   0.4375 0.3750 0.3750  plane waves:    1314
 k-point 158 :   0.5000 0.3750 0.3750  plane waves:    1308
 k-point 159 :   0.4375 0.4375 0.3750  plane waves:    1320
 k-point 160 :   0.5000 0.4375 0.3750  plane waves:    1322
 k-point 161 :   0.5000 0.5000 0.3750  plane waves:    1324
 k-point 162 :   0.4375 0.4375 0.4375  plane waves:    1334
 k-point 163 :   0.5000 0.4375 0.4375  plane waves:    1338
 k-point 164 :   0.5000 0.5000 0.4375  plane waves:    1332
 k-point 165 :   0.5000 0.5000 0.5000  plane waves:    1328

 maximum and minimum number of plane-waves per node :      1357     1278

 maximum number of plane-waves:      1357
 maximum index in each direction: 
   IXMAX=    6   IYMAX=    6   IZMAX=    6
   IXMIN=   -7   IYMIN=   -7   IZMIN=   -7


 serial   3D FFT for wavefunctions
 parallel 3D FFT for charge:
    minimum data exchange during FFTs selected (reduces bandwidth)


 total amount of memory used by VASP MPI-rank0    48915. kBytes
=======================================================================

   base      :      30000. kBytes
   nonl-proj :      14533. kBytes
   fftplans  :        147. kBytes
   grid      :        485. kBytes
   one-center:         12. kBytes
   wavefun   :       3738. kBytes
 
     INWAV:  cpu time      0.0000: real time      0.0001
 Broyden mixing: mesh for mixing (old mesh)
   NGX = 13   NGY = 13   NGZ = 13
  (NGX  = 40   NGY  = 40   NGZ  = 40)
  gives a total of   2197 points

 initial charge density was supplied:
 charge density of overlapping atoms calculated
 number of electron      12.0000000 magnetization 
 keeping initial charge density in first step


--------------------------------------------------------------------------------------------------------


 Maximum index for augmentation-charges          317 (set IRDMAX)


--------------------------------------------------------------------------------------------------------


 First call to EWALD:  gamma=   0.426
 Maximum number of real-space cells 3x 3x 3
 Maximum number of reciprocal cells 3x 3x 3

    FEWALD:  cpu time      0.0011: real time      0.0011


--------------------------------------- Iteration      1(   1)  ---------------------------------------


    POTLOK:  cpu time      0.0021: real time      0.0022
    SETDIJ:  cpu time      0.0011: real time      0.0011
     EDDAV:  cpu time      0.6217: real time      0.6263
       DOS:  cpu time      0.0008: real time      0.0008
    --------------------------------------------
      LOOP:  cpu time      0.6256: real time      0.6303

 eigenvalue-minimisations  :  7920
 total energy-change (2. order) :-0.7869985E+01  (-0.3843011E+03)
 number of electron      12.0000000 magnetization 
 augmentation part       12.0000000 magnetization 

 Free energy of the ion-electron system (eV)
  ---------------------------------------------------
  alpha Z        PSCENC =        -0.74672636
  Ewald energy   TEWEN  =      -285.69779207
  -Hartree energ DENC   =        -0.56780231
  -exchange      EXHF   =         0.00000000
  -V(xc)+E(xc)   XCENC  =      -105.57203192
  PAW double counting   =       264.80062850     -136.98248303
  entropy T*S    EENTRO =        -0.00242908
  eigenvalues    EBANDS =        42.74603382
  atomic energy  EATOM  =       214.15261729
  Solvation  Ediel_sol  =         0.00000000
  ---------------------------------------------------
  free energy    TOTEN  =        -7.86998516 eV

  energy without entropy =       -7.86755607  energy(sigma->0) =       -7.86877062


--------------------------------------------------------------------------------------------------------




--------------------------------------- Iteration      1(   2)  ---------------------------------------


     EDDAV:  cpu time      1.0531: real time      1.0608
       DOS:  cpu time      0.0007: real time      0.0007
    --------------------------------------------
      LOOP:  cpu time      1.0538: real time      1.0615

 eigenvalue-minimisations  : 11592
 total energy-change (2. order) :-0.7055705E+01  (-0.6981529E+01)
 number of electron      12.0000000 magnetization 
 augmentation part       12.0000000 magnetization 

 Free energy of the ion-electron system (eV)
  ---------------------------------------------------
  alpha Z        PSCENC =        -0.74672636
  Ewald energy   TEWEN  =      -285.69779207
  -Hartree energ DENC   =        -0.56780231
  -exchange      EXHF   =         0.00000000
  -V(xc)+E(xc)   XCENC  =      -105.57203192
  PAW double counting   =       264.80062850     -136.98248303
  entropy T*S    EENTRO =        -0.00192773
  eigenvalues    EBANDS =        35.68982724
  atomic energy  EATOM  =       214.15261729
  Solvation  Ediel_sol  =         0.00000000
  ---------------------------------------------------
  free energy    TOTEN  =       -14.92569039 eV

  energy without entropy =      -14.92376266  energy(sigma->0) =      -14.92472653


--------------------------------------------------------------------------------------------------------




--------------------------------------- Iteration      1(   3)  ---------------------------------------


     EDDAV:  cpu time      0.9389: real time      0.9454
       DOS:  cpu time      0.0007: real time      0.0007
    --------------------------------------------
      LOOP:  cpu time      0.9396: real time      0.9461

 eigenvalue-minimisations  : 10608
 total energy-change (2. order) :-0.3151883E-01  (-0.3151594E-01)
 number of electron      12.0000000 magnetization 
 augmentation part       12.0000000 magnetization 

 Free energy of the ion-electron system (eV)
  ---------------------------------------------------
  alpha Z        PSCENC =        -0.74672636
  Ewald energy   TEWEN  =      -285.69779207
  -Hartree energ DENC   =        -0.56780231
  -exchange      EXHF   =         0.00000000
  -V(xc)+E(xc)   XCENC  =      -105.57203192
  PAW double counting   =       264.80062850     -136.98248303
  entropy T*S    EENTRO =        -0.00194013
  eigenvalues    EBANDS =        35.65832081
  atomic energy  EATOM  =       214.15261729
  Solvation  Ediel_sol  =         0.00000000
  ---------------------------------------------------
  free energy    TOTEN  =       -14.95720922 eV

  energy without entropy =      -14.95526909  energy(sigma->0) =      -14.95623916


--------------------------------------------------------------------------------------------------------




--------------------------------------- Iteration      1(   4)  ---------------------------------------


     EDDAV:  cpu time      1.4626: real time      1.4720
       DOS:  cpu time      0.0007: real time      0.0007
    --------------------------------------------
      LOOP:  cpu time      1.4633: real time      1.4727

 eigenvalue-minimisations  : 14040
 total energy-change (2. order) :-0.4640926E-04  (-0.4640887E-04)
 number of electron      12.0000000 magnetization 
 augmentation part       12.0000000 magnetization 

 Free energy of the ion-electron system (eV)
  ---------------------------------------------------
  alpha Z        PSCENC =        -0.74672636
  Ewald energy   TEWEN  =      -285.69779207
  -Hartree energ DENC   =        -0.56780231
  -exchange      EXHF   =         0.00000000
  -V(xc)+E(xc)   XCENC  =      -105.57203192
  PAW double counting   =       264.80062850     -136.98248303
  entropy T*S    EENTRO =        -0.00194022
  eigenvalues    EBANDS =        35.65827448
  atomic energy  EATOM  =       214.15261729
  Solvation  Ediel_sol  =         0.00000000
  ---------------------------------------------------
  free energy    TOTEN  =       -14.95725563 eV

  energy without entropy =      -14.95531542  energy(sigma->0) =      -14.95628552


--------------------------------------------------------------------------------------------------------




--------------------------------------- Iteration      1(   5)  ---------------------------------------


     EDDAV:  cpu time      0.9317: real time      0.9386
       DOS:  cpu time      0.0007: real time      0.0007
    CHARGE:  cpu time      0.0143: real time      0.0143
    MIXING:  cpu time      0.0002: real time      0.0002
    --------------------------------------------
      LOOP:  cpu time      0.9469: real time      0.9539

 eigenvalue-minimisations  : 10320
 total energy-change (2. order) :-0.8480583E-08  (-0.9089253E-08)
 number of electron      11.9999998 magnetization 
 augmentation part       -0.1555272 magnetization 

 Broyden mixing:
  rms(total) = 0.23409E+00    rms(broyden)= 0.23409E+00
  rms(prec ) = 0.44742E+00
  weight for this iteration     100.00

 Free energy of the ion-electron system (eV)
  ---------------------------------------------------
  alpha Z        PSCENC =        -0.74672636
  Ewald energy   TEWEN  =      -285.69779207
  -Hartree energ DENC   =        -0.56780231
  -exchange      EXHF   =         0.00000000
  -V(xc)+E(xc)   XCENC  =      -105.57203192
  PAW double counting   =       264.80062850     -136.98248303
  entropy T*S    EENTRO =        -0.00194022
  eigenvalues    EBANDS =        35.65827448
  atomic energy  EATOM  =       214.15261729
  Solvation  Ediel_sol  =         0.00000000
  ---------------------------------------------------
  free energy    TOTEN  =       -14.95725564 eV

  energy without entropy =      -14.95531542  energy(sigma->0) =      -14.95628553


--------------------------------------------------------------------------------------------------------




--------------------------------------- Iteration      1(   6)  ---------------------------------------


    POTLOK:  cpu time      0.0020: real time      0.0022
    SETDIJ:  cpu time      0.0009: real time      0.0009
     EDDAV:  cpu time      1.1549: real time      1.1625
       DOS:  cpu time      0.0007: real time      0.0007
    CHARGE:  cpu time      0.0131: real time      0.0131
    MIXING:  cpu time      0.0002: real time      0.0002
    --------------------------------------------
      LOOP:  cpu time      1.1717: real time      1.1796

 eigenvalue-minimisations  : 11880
 total energy-change (2. order) : 0.4944421E-01  (-0.8337388E-03)
 number of electron      11.9999998 magnetization 
 augmentation part       -0.1579765 magnetization 

 Broyden mixing:
  rms(total) = 0.13656E+00    rms(broyden)= 0.13656E+00
  rms(prec ) = 0.27454E+00
  weight for this iteration     100.00

 eigenvalues of (default mixing * dielectric matrix)
  average eigenvalue GAMMA=   2.3313
  2.3313

 Free energy of the ion-electron system (eV)
  ---------------------------------------------------
  alpha Z        PSCENC =        -0.74672636
  Ewald energy   TEWEN  =      -285.69779207
  -Hartree energ DENC   =        -0.43429936
  -exchange      EXHF   =         0.00000000
  -V(xc)+E(xc)   XCENC  =      -105.45989116
  PAW double counting   =       355.91434190     -228.08884403
  entropy T*S    EENTRO =        -0.00196792
  eigenvalues    EBANDS =        35.45475027
  atomic energy  EATOM  =       214.15261729
  Solvation  Ediel_sol  =         0.00000000
  ---------------------------------------------------
  free energy    TOTEN  =       -14.90781144 eV

  energy without entropy =      -14.90584351  energy(sigma->0) =      -14.90682748


--------------------------------------------------------------------------------------------------------




--------------------------------------- Iteration      1(   7)  ---------------------------------------


    POTLOK:  cpu time      0.0019: real time      0.0021
    SETDIJ:  cpu time      0.0009: real time      0.0009
     EDDAV:  cpu time      0.8955: real time      0.9015
       DOS:  cpu time      0.0007: real time      0.0007
    CHARGE:  cpu time      0.0130: real time      0.0130
    MIXING:  cpu time      0.0002: real time      0.0002
    --------------------------------------------
      LOOP:  cpu time      0.9121: real time      0.9183

 eigenvalue-minimisations  : 10128
 total energy-change (2. order) : 0.3594402E-01  (-0.2360573E-02)
 number of electron      11.9999998 magnetization 
 augmentation part       -0.1624483 magnetization 

 Broyden mixing:
  rms(total) = 0.24675E-01    rms(broyden)= 0.24675E-01
  rms(prec ) = 0.26616E-01
  weight for this iteration     100.00

 eigenvalues of (default mixing * dielectric matrix)
  average eigenvalue GAMMA=   2.6969
  2.6969  2.6969

 Free energy of the ion-electron system (eV)
  ---------------------------------------------------
  alpha Z        PSCENC =        -0.74672636
  Ewald energy   TEWEN  =      -285.69779207
  -Hartree energ DENC   =        -0.38668896
  -exchange      EXHF   =         0.00000000
  -V(xc)+E(xc)   XCENC  =      -105.23022472
  PAW double counting   =       526.84776987     -399.01777422
  entropy T*S    EENTRO =        -0.00201345
  eigenvalues    EBANDS =        35.20896521
  atomic energy  EATOM  =       214.15261729
  Solvation  Ediel_sol  =         0.00000000
  ---------------------------------------------------
  free energy    TOTEN  =       -14.87186742 eV

  energy without entropy =      -14.86985397  energy(sigma->0) =      -14.87086069


--------------------------------------------------------------------------------------------------------




--------------------------------------- Iteration      1(   8)  ---------------------------------------


    POTLOK:  cpu time      0.0019: real time      0.0021
    SETDIJ:  cpu time      0.0009: real time      0.0009
     EDDAV:  cpu time      1.5166: real time      1.5284
       DOS:  cpu time      0.0007: real time      0.0007
    CHARGE:  cpu time      0.0134: real time      0.0135
    MIXING:  cpu time      0.0002: real time      0.0002
    --------------------------------------------
      LOOP:  cpu time      1.5337: real time      1.5457

 eigenvalue-minimisations  : 14040
 total energy-change (2. order) : 0.1002022E-03  (-0.8068646E-05)
 number of electron      11.9999998 magnetization 
 augmentation part       -0.1627699 magnetization 

 Broyden mixing:
  rms(total) = 0.14539E-02    rms(broyden)= 0.14539E-02
  rms(prec ) = 0.33011E-02
  weight for this iteration     100.00

 eigenvalues of (default mixing * dielectric matrix)
  average eigenvalue GAMMA=   2.1270
  1.0302  2.5895  2.7612

 Free energy of the ion-electron system (eV)
  ---------------------------------------------------
  alpha Z        PSCENC =        -0.74672636
  Ewald energy   TEWEN  =      -285.69779207
  -Hartree energ DENC   =        -0.39788232
  -exchange      EXHF   =         0.00000000
  -V(xc)+E(xc)   XCENC  =      -105.21489545
  PAW double counting   =       488.08144677     -360.26512353
  entropy T*S    EENTRO =        -0.00201564
  eigenvalues    EBANDS =        35.21860410
  atomic energy  EATOM  =       214.15261729
  Solvation  Ediel_sol  =         0.00000000
  ---------------------------------------------------
  free energy    TOTEN  =       -14.87176722 eV

  energy without entropy =      -14.86975158  energy(sigma->0) =      -14.87075940


--------------------------------------------------------------------------------------------------------




--------------------------------------- Iteration      1(   9)  ---------------------------------------


    POTLOK:  cpu time      0.0020: real time      0.0021
    SETDIJ:  cpu time      0.0009: real time      0.0009
     EDDAV:  cpu time      0.9587: real time      0.9654
       DOS:  cpu time      0.0006: real time      0.0006
    --------------------------------------------
      LOOP:  cpu time      0.9622: real time      0.9691

 eigenvalue-minimisations  : 10368
 total energy-change (2. order) : 0.6953945E-05  (-0.4142748E-06)
 number of electron      11.9999998 magnetization 
 augmentation part       -0.1627699 magnetization 

 Free energy of the ion-electron system (eV)
  ---------------------------------------------------
  alpha Z        PSCENC =        -0.74672636
  Ewald energy   TEWEN  =      -285.69779207
  -Hartree energ DENC   =        -0.39902903
  -exchange      EXHF   =         0.00000000
  -V(xc)+E(xc)   XCENC  =      -105.21123968
  PAW double counting   =       488.33208097     -360.51578081
  entropy T*S    EENTRO =        -0.00201627
  eigenvalues    EBANDS =        35.21612569
  atomic energy  EATOM  =       214.15261729
  Solvation  Ediel_sol  =         0.00000000
  ---------------------------------------------------
  free energy    TOTEN  =       -14.87176027 eV

  energy without entropy =      -14.86974399  energy(sigma->0) =      -14.87075213


--------------------------------------------------------------------------------------------------------




 average (electrostatic) potential at core
  the test charge radii are     1.0406
  (the norm of the test charge is              1.0000)
       1 -73.6220       2 -73.6220       3 -73.6220       4 -73.6220
 
 
 
 E-fermi :   7.1154     XC(G=0):  -9.8872     alpha+bet :-13.6426

 Fermi energy:         7.1153722464

 k-point     1 :       0.0000    0.0000    0.0000
  band No.  band energies     occupation 
      1      -3.4234      2.00000
      2       4.4116      2.00000
      3       4.4116      2.00000
      4       4.4116      2.00000
      5       5.5266      2.00000
      6       5.5266      2.00000
      7       5.5266      2.00000
      8      12.3327      0.00000
      9      12.3327      0.00000
     10      12.3327      0.00000
     11      12.3327      0.00000
     12      12.3327      0.00000
     13      12.3327      0.00000
     14      12.3624      0.00000
     15      12.3624      0.00000
     16      12.3624      0.00000
     17      15.4315      0.00000
     18      15.4315      0.00000
     19      15.4315      0.00000
     20      19.2787      0.00000
     21      19.2787      0.00000
     22      19.2787      0.00000
     23      20.1388      0.00000
     24      20.1388      0.00000

 k-point     2 :       0.0625    0.0000    0.0000
  band No.  band energies     occupation 
[...]
      5       3.7925      2.00000
      6       3.7925      2.00000
      7       5.8249      2.00000
      8       5.8249      2.00000
      9      13.8239      0.00000
     10      13.8239      0.00000
     11      14.7340      0.00000
     12      14.7340      0.00000
     13      15.5224      0.00000
     14      15.5224      0.00000
     15      16.5887      0.00000
     16      16.5887      0.00000
     17      17.9265      0.00000
     18      17.9265      0.00000
     19      18.8465      0.00000
     20      18.8465      0.00000
     21      19.7447      0.00000
     22      19.7447      0.00000
     23      20.3747      0.00000
     24      20.3747      0.00000

 k-point   153 :       0.4375    0.4375    0.3125
  band No.  band energies     occupation 
      1       0.6342      2.00000
      2       1.6728      2.00000
      3       1.6728      2.00000
      4       2.7047      2.00000
      5       3.7287      2.00000
      6       4.7483      2.00000
      7       4.7483      2.00000
      8       5.7623      2.00000
      9      13.7750      0.00000
     10      14.6623      0.00000
     11      14.6623      0.00000
     12      15.5505      0.00000
     13      15.6143      0.00000
     14      15.6143      0.00000
     15      15.8937      0.00000
     16      17.6614      0.00000
     17      17.6769      0.00000
     18      18.6739      0.00000
     19      18.6739      0.00000
     20      18.8052      0.00000
     21      19.2559      0.00000
     22      19.7132      0.00000
     23      19.7132      0.00000
     24      20.5970      0.00000

 k-point   154 :       0.5000    0.4375    0.3125
  band No.  band energies     occupation 
      1       1.1220      2.00000
      2       1.1220      2.00000
      3       2.1574      2.00000
      4       2.1574      2.00000
      5       4.2075      2.00000
      6       4.2075      2.00000
      7       5.2245      2.00000
      8       5.2245      2.00000
      9      14.2030      0.00000
     10      14.2030      0.00000
     11      15.0887      0.00000
     12      15.0887      0.00000
     13      15.9156      0.00000
     14      15.9156      0.00000
     15      16.8306      0.00000
     16      16.8306      0.00000
     17      18.4605      0.00000
     18      18.4605      0.00000
     19      18.8428      0.00000
     20      18.8428      0.00000
     21      19.3382      0.00000
     22      19.3382      0.00000
     23      19.8297      0.00000
     24      19.8297      0.00000

 k-point   155 :       0.5000    0.5000    0.3125
  band No.  band energies     occupation 
      1       1.6082      2.00000
      2       1.6082      2.00000
      3       1.6082      2.00000
      4       1.6082      2.00000
      5       4.6850      2.00000
      6       4.6850      2.00000
      7       4.6850      2.00000
      8       4.6850      2.00000
      9      14.6297      0.00000
     10      14.6297      0.00000
     11      14.6297      0.00000
     12      14.6297      0.00000
     13      16.7520      0.00000
     14      16.7520      0.00000
     15      16.7520      0.00000
     16      16.7520      0.00000
     17      18.4700      0.00000
     18      18.4700      0.00000
     19      18.4700      0.00000
     20      18.4700      0.00000
     21      19.6219      0.00000
     22      19.6219      0.00000
     23      19.6219      0.00000
     24      19.6219      0.00000

 k-point   156 :       0.3750    0.3750    0.3750
  band No.  band energies     occupation 
      1       0.1450      2.00000
      2       2.2213      2.00000
      3       2.2213      2.00000
      4       2.2213      2.00000
      5       4.2719      2.00000
      6       4.2719      2.00000
      7       4.2719      2.00000
      8       6.2992      2.00000
      9      14.2875      0.00000
     10      14.2875      0.00000
     11      14.2875      0.00000
     12      15.4614      0.00000
     13      15.4614      0.00000
     14      15.4614      0.00000
     15      17.1872      0.00000
     16      17.1872      0.00000
     17      17.1872      0.00000
     18      17.2929      0.00000
     19      17.2929      0.00000
     20      19.2322      0.00000
     21      19.2322      0.00000
     22      20.7596      0.00000
     23      21.0751      0.00000
     24      21.0751      0.00000

 k-point   157 :       0.4375    0.3750    0.3750
  band No.  band energies     occupation 
      1       0.5691      2.00000
      2       1.6081      2.00000
      3       2.6401      2.00000
      4       2.6401      2.00000
      5       3.6662      2.00000
      6       3.6662      2.00000
      7       4.6859      2.00000
      8       5.7003      2.00000
      9      14.6536      0.00000
     10      14.6536      0.00000
     11      15.4181      0.00000
     12      15.4181      0.00000
     13      15.5839      0.00000
     14      15.8375      0.00000
     15      16.7571      0.00000
     16      17.4831      0.00000
     17      17.6192      0.00000
     18      17.9491      0.00000
     19      17.9491      0.00000
     20      18.2641      0.00000
     21      19.5956      0.00000
     22      20.2530      0.00000
     23      20.2530      0.00000
     24      20.5210      0.00000

 k-point   158 :       0.5000    0.3750    0.3750
  band No.  band energies     occupation 
      1       1.0570      2.00000
      2       1.0570      2.00000
      3       3.1217      2.00000
      4       3.1217      2.00000
      5       3.1222      2.00000
      6       3.1222      2.00000
      7       5.1622      2.00000
      8       5.1622      2.00000
      9      15.0504      0.00000
     10      15.0504      0.00000
     11      15.0508      0.00000
     12      15.0508      0.00000
     13      16.2700      0.00000
     14      16.2700      0.00000
     15      16.8535      0.00000
     16      16.8535      0.00000
     17      17.7537      0.00000
     18      17.7537      0.00000
     19      18.9013      0.00000
     20      18.9013      0.00000
     21      19.3148      0.00000
     22      19.3148      0.00000
     23      20.0273      0.00000
     24      20.0273      0.00000

 k-point   159 :       0.4375    0.4375    0.3750
  band No.  band energies     occupation 
      1       0.9921      2.00000
      2       2.0284      2.00000
      3       2.0284      2.00000
      4       3.0560      2.00000
      5       3.0601      2.00000
      6       4.0816      2.00000
      7       4.0816      2.00000
      8       5.0994      2.00000
      9      15.0190      0.00000
     10      15.7860      0.00000
     11      15.7860      0.00000
     12      15.9214      0.00000
     13      15.9214      0.00000
     14      16.2113      0.00000
     15      16.6239      0.00000
     16      17.8033      0.00000
     17      17.8878      0.00000
     18      18.1903      0.00000
     19      18.1903      0.00000
     20      18.3874      0.00000
     21      19.0916      0.00000
     22      19.7219      0.00000
     23      19.7219      0.00000
     24      19.9851      0.00000

 k-point   160 :       0.5000    0.4375    0.3750
  band No.  band energies     occupation 
      1       1.4788      2.00000
      2       1.4788      2.00000
      3       2.5120      2.00000
      4       2.5120      2.00000
      5       3.5386      2.00000
      6       3.5386      2.00000
      7       4.5595      2.00000
      8       4.5595      2.00000
      9      15.4165      0.00000
     10      15.4165      0.00000
     11      16.2016      0.00000
     12      16.2016      0.00000
     13      16.2263      0.00000
     14      16.2263      0.00000
     15      17.1148      0.00000
     16      17.1148      0.00000
     17      18.3385      0.00000
     18      18.3385      0.00000
     19      18.6157      0.00000
     20      18.6157      0.00000
     21      19.2561      0.00000
     22      19.2561      0.00000
     23      19.2805      0.00000
     24      19.2805      0.00000

 k-point   161 :       0.5000    0.5000    0.3750
  band No.  band energies     occupation 
      1       1.9640      2.00000
      2       1.9640      2.00000
      3       1.9640      2.00000
      4       1.9640      2.00000
      5       4.0180      2.00000
      6       4.0180      2.00000
      7       4.0180      2.00000
      8       4.0180      2.00000
      9      15.8178      0.00000
     10      15.8178      0.00000
     11      15.8178      0.00000
     12      15.8178      0.00000
     13      17.0619      0.00000
     14      17.0619      0.00000
     15      17.0619      0.00000
     16      17.0619      0.00000
     17      18.5761      0.00000
     18      18.5761      0.00000
     19      18.5761      0.00000
     20      18.5761      0.00000
     21      19.0187      0.00000
     22      19.0187      0.00000
     23      19.0187      0.00000
     24      19.0187      0.00000

 k-point   162 :       0.4375    0.4375    0.4375
  band No.  band energies     occupation 
      1       1.4140      2.00000
      2       2.4477      2.00000
      3       2.4477      2.00000
      4       2.4477      2.00000
      5       3.4751      2.00000
      6       3.4751      2.00000
      7       3.4751      2.00000
      8       4.4965      2.00000
      9      16.2568      0.00000
     10      16.2568      0.00000
     11      16.2568      0.00000
     12      16.5844      0.00000
     13      16.5844      0.00000
     14      16.5844      0.00000
     15      17.4669      0.00000
     16      17.4669      0.00000
     17      18.0696      0.00000
     18      18.0696      0.00000
     19      18.0696      0.00000
     20      18.5493      0.00000
     21      18.5493      0.00000
     22      19.4343      0.00000
     23      19.4343      0.00000
     24      19.4343      0.00000

 k-point   163 :       0.5000    0.4375    0.4375
  band No.  band energies     occupation 
      1       1.8994      2.00000
      2       1.8994      2.00000
      3       2.9245      2.00000
      4       2.9245      2.00000
      5       2.9358      2.00000
      6       2.9358      2.00000
      7       3.9547      2.00000
      8       3.9547      2.00000
      9      16.5476      0.00000
     10      16.5476      0.00000
     11      16.6100      0.00000
     12      16.6100      0.00000
     13      17.0093      0.00000
     14      17.0093      0.00000
     15      17.3757      0.00000
     16      17.3757      0.00000
     17      18.1098      0.00000
     18      18.1098      0.00000
     19      18.5953      0.00000
     20      18.5953      0.00000
     21      18.8388      0.00000
     22      18.8388      0.00000
     23      18.9497      0.00000
     24      18.9497      0.00000

 k-point   164 :       0.5000    0.5000    0.4375
  band No.  band energies     occupation 
      1       2.3835      2.00000
      2       2.3835      2.00000
      3       2.3835      2.00000
      4       2.3835      2.00000
      5       3.4113      2.00000
      6       3.4113      2.00000
      7       3.4113      2.00000
      8       3.4113      2.00000
      9      16.9345      0.00000
     10      16.9345      0.00000
     11      16.9345      0.00000
     12      16.9345      0.00000
     13      17.4081      0.00000
     14      17.4081      0.00000
     15      17.4081      0.00000
     16      17.4081      0.00000
     17      18.4948      0.00000
     18      18.4948      0.00000
     19      18.4948      0.00000
     20      18.4948      0.00000
     21      18.4965      0.00000
     22      18.4965      0.00000
     23      18.4965      0.00000
     24      18.4965      0.00000

 k-point   165 :       0.5000    0.5000    0.5000
  band No.  band energies     occupation 
      1       2.8586      2.00000
      2       2.8586      2.00000
      3       2.8586      2.00000
      4       2.8586      2.00000
      5       2.8736      2.00000
      6       2.8736      2.00000
      7       2.8736      2.00000
      8       2.8736      2.00000
      9      17.6477      0.00000
     10      17.6477      0.00000
     11      17.6477      0.00000
     12      17.6477      0.00000
     13      17.6477      0.00000
     14      17.6477      0.00000
     15      17.6477      0.00000
     16      17.6477      0.00000
     17      18.1982      0.00000
     18      18.1982      0.00000
     19      18.1982      0.00000
     20      18.1982      0.00000
     21      18.1982      0.00000
     22      18.1982      0.00000
     23      18.1982      0.00000
     24      18.1982      0.00000


--------------------------------------------------------------------------------------------------------


 soft charge-density along one line, spin component           1
         0         1         2         3         4         5         6         7         8         9
 total charge-density along one line
 
 pseudopotential strength for first ion, spin component:           1
  8.472  14.441  -0.000   0.000   0.000  -0.000   0.000   0.000
 14.441  24.615  -0.000   0.000  -0.000  -0.000   0.000  -0.000
 -0.000  -0.000   1.984   0.000   0.000   5.727   0.000   0.000
  0.000   0.000   0.000   1.984   0.000   0.000   5.727   0.000
  0.000  -0.000   0.000   0.000   1.984   0.000   0.000   5.727
 -0.000  -0.000   5.727   0.000   0.000  16.443   0.000   0.000
  0.000   0.000   0.000   5.727   0.000   0.000  16.443   0.000
  0.000  -0.000   0.000   0.000   5.727   0.000   0.000  16.443
 total augmentation occupancy for first ion, spin component:           1
  2.986  -0.664  -0.000   0.000   0.000  -0.000   0.000   0.000
 -0.664   0.220   0.000  -0.000  -0.000  -0.000   0.000   0.000
 -0.000   0.000   0.994   0.000  -0.000  -0.062  -0.000  -0.000
  0.000  -0.000   0.000   0.994  -0.000  -0.000  -0.062   0.000
  0.000  -0.000   0.000  -0.000   0.994  -0.000   0.000  -0.062
 -0.000  -0.000  -0.062  -0.000  -0.000   0.004  -0.000   0.000
  0.000   0.000   0.000  -0.062   0.000  -0.000   0.004  -0.000
  0.000   0.000   0.000   0.000  -0.062  -0.000  -0.000   0.004


------------------------ aborting loop because EDIFF is reached ----------------------------------------


    CHARGE:  cpu time      0.0131: real time      0.0131
    FORLOC:  cpu time      0.0001: real time      0.0001
    FORNL :  cpu time      0.0353: real time      0.0355
    STRESS:  cpu time      0.3510: real time      0.3530
    FORCOR:  cpu time      0.0017: real time      0.0017
    FORHAR:  cpu time      0.0004: real time      0.0004
    MIXING:  cpu time      0.0002: real time      0.0002
    OFIELD:  cpu time      0.0000: real time      0.0000

  FORCE on cell =-STRESS in cart. coord.  units (eV):
  Direction    XX          YY          ZZ          XY          YZ          ZX
  --------------------------------------------------------------------------------------
  Alpha Z    -0.74673    -0.74673    -0.74673
  Ewald     -95.23264   -95.23264   -95.23264     0.00000     0.00000     0.00000
  Hartree     0.13299     0.13299     0.13299    -0.00000    -0.00000    -0.00000
  E(xc)     -33.36903   -33.36903   -33.36903    -0.00000     0.00000    -0.00000
  Local      -0.18167    -0.18167    -0.18167     0.00000    -0.00000    -0.00000
  n-local    73.39596    74.10253    75.59680     0.03900     0.61717     0.22438
  augment    -4.34924    -4.34924    -4.34924     0.00000     0.00000     0.00000
  Kinetic    54.12934    56.39954    60.03637     1.76339    -7.87584    -1.68163
  Fock        0.00000     0.00000     0.00000     0.00000     0.00000     0.00000
  -------------------------------------------------------------------------------------
  Total      -2.52614    -2.52614    -2.52614     0.00000     0.00000     0.00000
  in kB     -56.23722   -56.23722   -56.23722     0.00000     0.00000     0.00000
  external pressure =      -56.24 kB  Pullay stress =        0.00 kB


 VOLUME and BASIS-vectors are now :
 -----------------------------------------------------------------------------
  energy-cutoff  :      400.00
  volume of cell :       71.97
      direct lattice vectors                 reciprocal lattice vectors
     4.159565564  0.000000000  0.000000000     0.240409722  0.000000000  0.000000000
     0.000000000  4.159565564  0.000000000     0.000000000  0.240409722  0.000000000
     0.000000000  0.000000000  4.159565564     0.000000000  0.000000000  0.240409722

  length of vectors
     4.159565564  4.159565564  4.159565564     0.240409722  0.240409722  0.240409722


 FORCES acting on ions
    electron-ion (+dipol)            ewald-force                    non-local-force                 convergence-correction
 -----------------------------------------------------------------------------------------------
   -.764E-14 -.913E-15 0.813E-14   0.939E-16 -.417E-15 -.673E-15   0.430E-24 0.217E-24 -.359E-24   0.169E-14 -.708E-17 0.216E-14
   -.767E-14 -.156E-14 -.198E-14   0.130E-15 -.529E-15 0.267E-15   0.731E-25 0.716E-26 -.272E-24   0.163E-14 0.175E-16 -.224E-14
   0.264E-14 0.106E-15 -.297E-13   -.265E-16 0.588E-15 0.260E-15   0.299E-24 0.338E-24 0.287E-25   -.169E-14 -.991E-16 -.225E-14
   0.103E-15 -.973E-14 0.170E-13   0.971E-17 0.477E-15 -.652E-16   -.292E-24 -.330E-24 0.529E-24   -.163E-14 0.116E-15 0.216E-14
 -----------------------------------------------------------------------------------------------
   -.126E-13 -.121E-13 -.663E-14   0.207E-15 0.118E-15 -.211E-15   0.510E-24 0.232E-24 -.739E-25   0.782E-17 0.278E-16 -.166E-15
 
 
 POSITION                                       TOTAL-FORCE (eV/Angst)
 -----------------------------------------------------------------------------------
      0.00000      0.00000      0.00000         0.000000      0.000000      0.000000
      0.00000      2.07978      2.07978        -0.000000     -0.000000     -0.000000
      2.07978      0.00000      2.07978         0.000000     -0.000000     -0.000000
      2.07978      2.07978      0.00000        -0.000000     -0.000000      0.000000
 -----------------------------------------------------------------------------------
    total drift:                               -0.000000     -0.000000     -0.000000


--------------------------------------------------------------------------------------------------------



  FREE ENERGIE OF THE ION-ELECTRON SYSTEM (eV)
  ---------------------------------------------------
  free  energy   TOTEN  =       -14.87176027 eV

  energy  without entropy=      -14.86974399  energy(sigma->0) =      -14.87075213
 


--------------------------------------------------------------------------------------------------------


    POTLOK:  cpu time      0.0028: real time      0.0028


--------------------------------------------------------------------------------------------------------




--------------------------------------------------------------------------------------------------------


  
 reached required accuracy - stopping structural energy minimisation
 writing wavefunctions
     LOOP+:  cpu time     10.2522: real time     10.3667
    4ORBIT:  cpu time      0.0000: real time      0.0000

 total amount of memory used by VASP MPI-rank0    48915. kBytes
=======================================================================

   base      :      30000. kBytes
   nonl-proj :      14533. kBytes
   fftplans  :        147. kBytes
   grid      :        485. kBytes
   one-center:         12. kBytes
   wavefun   :       3738. kBytes
 
  
  
 General timing and accounting informations for this job:
 ========================================================
  
                  Total CPU time used (sec):       11.025
                            User time (sec):       10.691
                          System time (sec):        0.334
                         Elapsed time (sec):       12.152
  
                   Maximum memory used (kb):      293860.
                   Average memory used (kb):          N/A
  
                          Minor page faults:        31487
                          Major page faults:         1407
                 Voluntary context switches:         2783
