       N       E                     dE             d eps       ncg     rms          rms(c)
DAV:   1    -0.739062209162E+01   -0.73906E+01   -0.39991E+03  7920   0.308E+02
DAV:   2    -0.149117937932E+02   -0.75212E+01   -0.74325E+01 11712   0.267E+01
DAV:   3    -0.149393302928E+02   -0.27536E-01   -0.27535E-01 10776   0.200E+00
DAV:   4    -0.149393671397E+02   -0.36847E-04   -0.36848E-04 13656   0.641E-02
DAV:   5    -0.149393671543E+02   -0.14665E-07   -0.13493E-07 10296   0.705E-04    0.296E+00
DAV:   6    -0.148827324625E+02    0.56635E-01   -0.47615E-03 12072   0.214E-01    0.172E+00
DAV:   7    -0.148415659945E+02    0.41166E-01   -0.13980E-02 10416   0.343E-01    0.294E-01
DAV:   8    -0.148414333205E+02    0.13267E-03   -0.82219E-05 13944   0.335E-02    0.838E-02
DAV:   9    -0.148414252209E+02    0.80996E-05   -0.29068E-06 10704   0.552E-03
   1 F= -.14841425E+02 E0= -.14840759E+02  d E =-.148414E+02
