 vasp.6.3.0 20Jan22 (build Feb 10 2022 15:15:41) complex                        
  
 executed on             LinuxIFC date 2023.09.09  16:12:32
 running on   24 total cores
 distrk:  each k-point on   24 cores,    1 groups
 distr:  one band on NCORE=   1 cores,   24 groups


--------------------------------------------------------------------------------------------------------


 INCAR:
   ENCUT = 400
   ISMEAR = 0
   SIGMA = 0.05
   IBRION = 2
   ISIF = 4
   NSW = 100
   EDIFF = 1E-05
   EDIFFG = -0.01

 POTCAR:    PAW_PBE Al 04Jan2001                  
 -----------------------------------------------------------------------------
|                                                                             |
|           W    W    AA    RRRRR   N    N  II  N    N   GGGG   !!!           |
|           W    W   A  A   R    R  NN   N  II  NN   N  G    G  !!!           |
|           W    W  A    A  R    R  N N  N  II  N N  N  G       !!!           |
|           W WW W  AAAAAA  RRRRR   N  N N  II  N  N N  G  GGG   !            |
|           WW  WW  A    A  R   R   N   NN  II  N   NN  G    G                |
|           W    W  A    A  R    R  N    N  II  N    N   GGGG   !!!           |
|                                                                             |
|     For optimal performance we recommend to set                             |
|       NCORE = 2 up to number-of-cores-per-socket                            |
|     NCORE specifies how many cores store one orbital (NPAR=cpu/NCORE).      |
|     This setting can greatly improve the performance of VASP for DFT.       |
|     The default, NCORE=1 might be grossly inefficient on modern             |
|     multi-core architectures or massively parallel machines. Do your        |
|     own testing! More info at https://www.vasp.at/wiki/index.php/NCORE      |
|     Unfortunately you need to use the default for GW and RPA                |
|     calculations (for HF NCORE is supported but not extensively tested      |
|     yet).                                                                   |
|                                                                             |
 -----------------------------------------------------------------------------

 POTCAR:    PAW_PBE Al 04Jan2001                  
   SHA256 =  17880443556af62b473fe41b62a467bd001ad55d2cabe504a3f22e34d4e9db96 Al/POTCAR             
   COPYR  = (c) Copyright 04Jan2001 Georg Kresse                                                    
   COPYR  = This file is part of the software VASP. Any use, copying, and all other rights are regul
   COPYR  = If you do not have a valid VASP license, you may not use, copy or distribute this file. 
   VRHFIN =Al: s2p1                                                                                 
   LEXCH  = PE                                                                                      
   EATOM  =    53.5387 eV,    3.9350 Ry                                                             
                                                                                                    
   TITEL  = PAW_PBE Al 04Jan2001                                                                    
   LULTRA =        F    use ultrasoft PP ?                                                          
   IUNSCR =        1    unscreen: 0-lin 1-nonlin 2-no                                               
   RPACOR =    1.500    partial core radius                                                         
   POMASS =   26.981; ZVAL   =    3.000    mass and valenz                                          
   RCORE  =    1.900    outmost cutoff radius                                                       
   RWIGS  =    2.650; RWIGS  =    1.402    wigner-seitz radius (au A)                               
   ENMAX  =  240.300; ENMIN  =  180.225 eV                                                          
   ICORE  =        2    local potential                                                             
   LCOR   =        T    correct aug charges                                                         
   LPAW   =        T    paw PP                                                                      
   EAUG   =  291.052                                                                                
   DEXC   =    0.000                                                                                
   RMAX   =    1.939    core radius for proj-oper                                                   
   RAUG   =    1.300    factor for augmentation sphere                                              
   RDEP   =    1.966    radius for radial grids                                                     
   RDEPT  =    1.856    core radius for aug-charge                                                  
                                                                                                    
   Atomic configuration                                                                             
    6 entries                                                                                       
     n  l   j            E        occ.                                                              
     1  0  0.50     -1511.1048   2.0000                                                             
     2  0  0.50      -108.1629   2.0000                                                             
     2  1  1.50       -69.6402   6.0000                                                             
     3  0  0.50        -7.7528   2.0000                                                             
     3  1  1.50        -2.7121   1.0000                                                             
     3  2  2.50        -2.7212   0.0000                                                             
   Description                                                                                      
     l       E           TYP  RCUT    TYP  RCUT                                                     
     0     -7.7528455     23  1.900                                                                 
     0     -3.3096929     23  1.900                                                                 
     1     -2.7120682     23  1.900                                                                 
     1     13.6058260     23  1.900                                                                 
     2     -2.7211652      7  1.900                                                                 
  local pseudopotential read in
  partial core-charges read in
  partial kinetic energy density read in
  atomic valenz-charges read in
  non local Contribution for L=           0  read in
    real space projection operators read in
  non local Contribution for L=           0  read in
    real space projection operators read in
  non local Contribution for L=           1  read in
    real space projection operators read in
  non local Contribution for L=           1  read in
    real space projection operators read in
    PAW grid and wavefunctions read in
 
   number of l-projection  operators is LMAX  =           4
   number of lm-projection operators is LMMAX =           8
 
  PAW_PBE Al 04Jan2001                  :
 energy of atom  1       EATOM=  -53.5387
 kinetic energy error for atom=    0.0005 (will be added to EATOM!!)
 
 
 POSCAR: Al4
  positions in direct lattice
  No initial velocities read in
 exchange correlation table for  LEXCH =        8
   RHO(1)=    0.500       N(1)  =     2000
   RHO(2)=  100.500       N(2)  =     4000
 


--------------------------------------------------------------------------------------------------------


 ion  position               nearest neighbor table
   1  0.000  0.000  0.000-   2 2.77   3 2.77   4 2.77   2 2.77   3 2.77   2 2.77   4 2.77   2 2.77
                             3 2.77   4 2.77   3 2.77   4 2.77
   2  0.000  0.500  0.500-   1 2.77   3 2.77   4 2.77   1 2.77   4 2.77   1 2.77   3 2.77   1 2.77
                             3 2.77   4 2.77   4 2.77   3 2.77
   3  0.500  0.000  0.500-   1 2.77   2 2.77   4 2.77   1 2.77   4 2.77   2 2.77   4 2.77   4 2.77
                             1 2.77   2 2.77   1 2.77   2 2.77
   4  0.500  0.500  0.000-   1 2.77   2 2.77   3 2.77   2 2.77   3 2.77   1 2.77   3 2.77   3 2.77
                             1 2.77   2 2.77   2 2.77   1 2.77
 
  LATTYP: Found a simple cubic cell.
 ALAT       =     3.9172607740
  
  Lattice vectors:
  
 A1 = (   3.9172607740,   0.0000000000,   0.0000000000)
 A2 = (   0.0000000000,   3.9172607740,   0.0000000000)
 A3 = (   0.0000000000,   0.0000000000,   3.9172607740)


Analysis of symmetry for initial positions (statically):
=====================================================================
 Subroutine PRICEL returns following result:
 
  LATTYP: Found a face centered cubic cell.
 ALAT       =     3.9172607740
  
  Lattice vectors:
  
 A1 = (   1.9586303870,  -1.9586303870,   0.0000000000)
 A2 = (   1.9586303870,   0.0000000000,   1.9586303870)
 A3 = (   0.0000000000,  -1.9586303870,   1.9586303870)
 
   4 primitive cells build up your supercell.
 

 Routine SETGRP: Setting up the symmetry group for a 
 simple cubic supercell.


 Subroutine GETGRP returns: Found 48 space group operations
 (whereof 48 operations were pure point group operations)
 out of a pool of 48 trial point group operations.


The static configuration has the point symmetry O_h .


Analysis of symmetry for dynamics (positions and initial velocities):
=====================================================================
 Subroutine PRICEL returns following result:
 
  LATTYP: Found a face centered cubic cell.
 ALAT       =     3.9172607740
  
  Lattice vectors:
  
 A1 = (   1.9586303870,  -1.9586303870,   0.0000000000)
 A2 = (   1.9586303870,   0.0000000000,   1.9586303870)
 A3 = (   0.0000000000,  -1.9586303870,   1.9586303870)
 
   4 primitive cells build up your supercell.
 

 Routine SETGRP: Setting up the symmetry group for a 
 simple cubic supercell.


 Subroutine GETGRP returns: Found 48 space group operations
 (whereof 48 operations were pure point group operations)
 out of a pool of 48 trial point group operations.


The dynamic configuration has the point symmetry O_h .


 Subroutine INISYM returns: Found 48 space group operations
 (whereof 48 operations are pure point group operations),
 and found     4 'primitive' translations


----------------------------------------------------------------------------------------

                                     Primitive cell                                     

  volume of cell :      15.0275

  direct lattice vectors                    reciprocal lattice vectors
     1.958630387 -1.958630387  0.000000000     0.255280426 -0.255280426 -0.255280426
     1.958630387  0.000000000  1.958630387     0.255280426  0.255280426  0.255280426
     0.000000000 -1.958630387  1.958630387    -0.255280426 -0.255280426  0.255280426

  length of vectors
     2.769921657  2.769921657  2.769921657     0.442158668  0.442158668  0.442158668

  position of ions in fractional coordinates (direct lattice)
     0.000000000  0.000000000  0.000000000

  ion indices of the primitive-cell ions
   primitive index   ion index
                 1           1

----------------------------------------------------------------------------------------

 
 
 KPOINTS: k-points                                

Automatic generation of k-mesh.
 Grid dimensions read from file:
 generate k-points for:   16   16   16

 Generating k-lattice:

  Cartesian coordinates                     Fractional coordinates (reciprocal lattice)
     0.015955027  0.000000000  0.000000000     0.062500000  0.000000000  0.000000000
     0.000000000  0.015955027  0.000000000     0.000000000  0.062500000  0.000000000
     0.000000000  0.000000000  0.015955027     0.000000000  0.000000000  0.062500000

  Length of vectors
     0.015955027  0.015955027  0.015955027

  Shift w.r.t. Gamma in fractional coordinates (k-lattice)
     0.000000000  0.000000000  0.000000000

 
 Subroutine IBZKPT returns following result:
 ===========================================
 
 Found    165 irreducible k-points:
 
 Following reciprocal coordinates:
            Coordinates               Weight
  0.000000  0.000000  0.000000      1.000000
  0.062500  0.000000  0.000000      6.000000
  0.125000  0.000000  0.000000      6.000000
  0.187500  0.000000  0.000000      6.000000
  0.250000  0.000000  0.000000      6.000000
  0.312500  0.000000  0.000000      6.000000
  0.375000  0.000000  0.000000      6.000000
  0.437500  0.000000  0.000000      6.000000
  0.500000  0.000000  0.000000      3.000000
  0.062500  0.062500  0.000000     12.000000
  0.125000  0.062500  0.000000     24.000000
  0.187500  0.062500  0.000000     24.000000
  0.250000  0.062500  0.000000     24.000000
  0.312500  0.062500  0.000000     24.000000
  0.375000  0.062500  0.000000     24.000000
  0.437500  0.062500  0.000000     24.000000
  0.500000  0.062500  0.000000     12.000000
  0.125000  0.125000  0.000000     12.000000
  0.187500  0.125000  0.000000     24.000000
  0.250000  0.125000  0.000000     24.000000
  0.312500  0.125000  0.000000     24.000000
  0.375000  0.125000  0.000000     24.000000
  0.437500  0.125000  0.000000     24.000000
  0.500000  0.125000  0.000000     12.000000
  0.187500  0.187500  0.000000     12.000000
  0.250000  0.187500  0.000000     24.000000
  0.312500  0.187500  0.000000     24.000000
  0.375000  0.187500  0.000000     24.000000
  0.437500  0.187500  0.000000     24.000000
  0.500000  0.187500  0.000000     12.000000
  0.250000  0.250000  0.000000     12.000000
  0.312500  0.250000  0.000000     24.000000
  0.375000  0.250000  0.000000     24.000000
  0.437500  0.250000  0.000000     24.000000
  0.500000  0.250000  0.000000     12.000000
  0.312500  0.312500  0.000000     12.000000
  0.375000  0.312500  0.000000     24.000000
  0.437500  0.312500  0.000000     24.000000
  0.500000  0.312500  0.000000     12.000000
  0.375000  0.375000  0.000000     12.000000
  0.437500  0.375000  0.000000     24.000000
  0.500000  0.375000  0.000000     12.000000
  0.437500  0.437500  0.000000     12.000000
  0.500000  0.437500  0.000000     12.000000
  0.500000  0.500000  0.000000      3.000000
  0.062500  0.062500  0.062500      8.000000
  0.125000  0.062500  0.062500     24.000000
  0.187500  0.062500  0.062500     24.000000
  0.250000  0.062500  0.062500     24.000000
  0.312500  0.062500  0.062500     24.000000
  0.375000  0.062500  0.062500     24.000000
  0.437500  0.062500  0.062500     24.000000
  0.500000  0.062500  0.062500     12.000000
  0.125000  0.125000  0.062500     24.000000
  0.187500  0.125000  0.062500     48.000000
  0.250000  0.125000  0.062500     48.000000
  0.312500  0.125000  0.062500     48.000000
  0.375000  0.125000  0.062500     48.000000
  0.437500  0.125000  0.062500     48.000000
  0.500000  0.125000  0.062500     24.000000
  0.187500  0.187500  0.062500     24.000000
  0.250000  0.187500  0.062500     48.000000
  0.312500  0.187500  0.062500     48.000000
  0.375000  0.187500  0.062500     48.000000
  0.437500  0.187500  0.062500     48.000000
  0.500000  0.187500  0.062500     24.000000
  0.250000  0.250000  0.062500     24.000000
  0.312500  0.250000  0.062500     48.000000
  0.375000  0.250000  0.062500     48.000000
  0.437500  0.250000  0.062500     48.000000
  0.500000  0.250000  0.062500     24.000000
  0.312500  0.312500  0.062500     24.000000
  0.375000  0.312500  0.062500     48.000000
  0.437500  0.312500  0.062500     48.000000
  0.500000  0.312500  0.062500     24.000000
  0.375000  0.375000  0.062500     24.000000
  0.437500  0.375000  0.062500     48.000000
  0.500000  0.375000  0.062500     24.000000
  0.437500  0.437500  0.062500     24.000000
  0.500000  0.437500  0.062500     24.000000
  0.500000  0.500000  0.062500      6.000000
  0.125000  0.125000  0.125000      8.000000
  0.187500  0.125000  0.125000     24.000000
  0.250000  0.125000  0.125000     24.000000
  0.312500  0.125000  0.125000     24.000000
  0.375000  0.125000  0.125000     24.000000
  0.437500  0.125000  0.125000     24.000000
  0.500000  0.125000  0.125000     12.000000
  0.187500  0.187500  0.125000     24.000000
  0.250000  0.187500  0.125000     48.000000
  0.312500  0.187500  0.125000     48.000000
  0.375000  0.187500  0.125000     48.000000
  0.437500  0.187500  0.125000     48.000000
  0.500000  0.187500  0.125000     24.000000
  0.250000  0.250000  0.125000     24.000000
  0.312500  0.250000  0.125000     48.000000
  0.375000  0.250000  0.125000     48.000000
  0.437500  0.250000  0.125000     48.000000
  0.500000  0.250000  0.125000     24.000000
  0.312500  0.312500  0.125000     24.000000
  0.375000  0.312500  0.125000     48.000000
  0.437500  0.312500  0.125000     48.000000
  0.500000  0.312500  0.125000     24.000000
  0.375000  0.375000  0.125000     24.000000
  0.437500  0.375000  0.125000     48.000000
  0.500000  0.375000  0.125000     24.000000
  0.437500  0.437500  0.125000     24.000000
  0.500000  0.437500  0.125000     24.000000
  0.500000  0.500000  0.125000      6.000000
  0.187500  0.187500  0.187500      8.000000
  0.250000  0.187500  0.187500     24.000000
  0.312500  0.187500  0.187500     24.000000
  0.375000  0.187500  0.187500     24.000000
  0.437500  0.187500  0.187500     24.000000
  0.500000  0.187500  0.187500     12.000000
  0.250000  0.250000  0.187500     24.000000
  0.312500  0.250000  0.187500     48.000000
  0.375000  0.250000  0.187500     48.000000
  0.437500  0.250000  0.187500     48.000000
  0.500000  0.250000  0.187500     24.000000
  0.312500  0.312500  0.187500     24.000000
  0.375000  0.312500  0.187500     48.000000
  0.437500  0.312500  0.187500     48.000000
  0.500000  0.312500  0.187500     24.000000
  0.375000  0.375000  0.187500     24.000000
  0.437500  0.375000  0.187500     48.000000
  0.500000  0.375000  0.187500     24.000000
  0.437500  0.437500  0.187500     24.000000
  0.500000  0.437500  0.187500     24.000000
  0.500000  0.500000  0.187500      6.000000
  0.250000  0.250000  0.250000      8.000000
  0.312500  0.250000  0.250000     24.000000
  0.375000  0.250000  0.250000     24.000000
  0.437500  0.250000  0.250000     24.000000
  0.500000  0.250000  0.250000     12.000000
  0.312500  0.312500  0.250000     24.000000
  0.375000  0.312500  0.250000     48.000000
  0.437500  0.312500  0.250000     48.000000
  0.500000  0.312500  0.250000     24.000000
  0.375000  0.375000  0.250000     24.000000
  0.437500  0.375000  0.250000     48.000000
  0.500000  0.375000  0.250000     24.000000
  0.437500  0.437500  0.250000     24.000000
  0.500000  0.437500  0.250000     24.000000
  0.500000  0.500000  0.250000      6.000000
  0.312500  0.312500  0.312500      8.000000
  0.375000  0.312500  0.312500     24.000000
  0.437500  0.312500  0.312500     24.000000
  0.500000  0.312500  0.312500     12.000000
  0.375000  0.375000  0.312500     24.000000
  0.437500  0.375000  0.312500     48.000000
  0.500000  0.375000  0.312500     24.000000
  0.437500  0.437500  0.312500     24.000000
  0.500000  0.437500  0.312500     24.000000
  0.500000  0.500000  0.312500      6.000000
  0.375000  0.375000  0.375000      8.000000
  0.437500  0.375000  0.375000     24.000000
  0.500000  0.375000  0.375000     12.000000
  0.437500  0.437500  0.375000     24.000000
  0.500000  0.437500  0.375000     24.000000
  0.500000  0.500000  0.375000      6.000000
  0.437500  0.437500  0.437500      8.000000
  0.500000  0.437500  0.437500     12.000000
  0.500000  0.500000  0.437500      6.000000
  0.500000  0.500000  0.500000      1.000000
 
 Following cartesian coordinates:
            Coordinates               Weight
  0.000000  0.000000  0.000000      1.000000
  0.015476  0.000000  0.000000      6.000000
  0.030953  0.000000  0.000000      6.000000
  0.046429  0.000000  0.000000      6.000000
  0.061906  0.000000  0.000000      6.000000
  0.077382  0.000000  0.000000      6.000000
  0.092858  0.000000  0.000000      6.000000
  0.108335  0.000000  0.000000      6.000000
  0.123811  0.000000  0.000000      3.000000
  0.015476  0.015476  0.000000     12.000000
  0.030953  0.015476  0.000000     24.000000
  0.046429  0.015476  0.000000     24.000000
  0.061906  0.015476  0.000000     24.000000
  0.077382  0.015476  0.000000     24.000000
  0.092858  0.015476  0.000000     24.000000
  0.108335  0.015476  0.000000     24.000000
  0.123811  0.015476  0.000000     12.000000
  0.030953  0.030953  0.000000     12.000000
  0.046429  0.030953  0.000000     24.000000
  0.061906  0.030953  0.000000     24.000000
  0.077382  0.030953  0.000000     24.000000
  0.092858  0.030953  0.000000     24.000000
  0.108335  0.030953  0.000000     24.000000
  0.123811  0.030953  0.000000     12.000000
  0.046429  0.046429  0.000000     12.000000
  0.061906  0.046429  0.000000     24.000000
  0.077382  0.046429  0.000000     24.000000
  0.092858  0.046429  0.000000     24.000000
  0.108335  0.046429  0.000000     24.000000
  0.123811  0.046429  0.000000     12.000000
  0.061906  0.061906  0.000000     12.000000
  0.077382  0.061906  0.000000     24.000000
  0.092858  0.061906  0.000000     24.000000
  0.108335  0.061906  0.000000     24.000000
  0.123811  0.061906  0.000000     12.000000
  0.077382  0.077382  0.000000     12.000000
  0.092858  0.077382  0.000000     24.000000
  0.108335  0.077382  0.000000     24.000000
  0.123811  0.077382  0.000000     12.000000
  0.092858  0.092858  0.000000     12.000000
  0.108335  0.092858  0.000000     24.000000
  0.123811  0.092858  0.000000     12.000000
  0.108335  0.108335  0.000000     12.000000
  0.123811  0.108335  0.000000     12.000000
  0.123811  0.123811  0.000000      3.000000
  0.015476  0.015476  0.015476      8.000000
  0.030953  0.015476  0.015476     24.000000
  0.046429  0.015476  0.015476     24.000000
  0.061906  0.015476  0.015476     24.000000
  0.077382  0.015476  0.015476     24.000000
  0.092858  0.015476  0.015476     24.000000
  0.108335  0.015476  0.015476     24.000000
  0.123811  0.015476  0.015476     12.000000
  0.030953  0.030953  0.015476     24.000000
  0.046429  0.030953  0.015476     48.000000
  0.061906  0.030953  0.015476     48.000000
  0.077382  0.030953  0.015476     48.000000
  0.092858  0.030953  0.015476     48.000000
  0.108335  0.030953  0.015476     48.000000
  0.123811  0.030953  0.015476     24.000000
  0.046429  0.046429  0.015476     24.000000
  0.061906  0.046429  0.015476     48.000000
  0.077382  0.046429  0.015476     48.000000
  0.092858  0.046429  0.015476     48.000000
  0.108335  0.046429  0.015476     48.000000
  0.123811  0.046429  0.015476     24.000000
  0.061906  0.061906  0.015476     24.000000
  0.077382  0.061906  0.015476     48.000000
  0.092858  0.061906  0.015476     48.000000
  0.108335  0.061906  0.015476     48.000000
  0.123811  0.061906  0.015476     24.000000
  0.077382  0.077382  0.015476     24.000000
  0.092858  0.077382  0.015476     48.000000
  0.108335  0.077382  0.015476     48.000000
  0.123811  0.077382  0.015476     24.000000
  0.092858  0.092858  0.015476     24.000000
  0.108335  0.092858  0.015476     48.000000
  0.123811  0.092858  0.015476     24.000000
  0.108335  0.108335  0.015476     24.000000
  0.123811  0.108335  0.015476     24.000000
  0.123811  0.123811  0.015476      6.000000
  0.030953  0.030953  0.030953      8.000000
  0.046429  0.030953  0.030953     24.000000
  0.061906  0.030953  0.030953     24.000000
  0.077382  0.030953  0.030953     24.000000
  0.092858  0.030953  0.030953     24.000000
  0.108335  0.030953  0.030953     24.000000
  0.123811  0.030953  0.030953     12.000000
  0.046429  0.046429  0.030953     24.000000
  0.061906  0.046429  0.030953     48.000000
  0.077382  0.046429  0.030953     48.000000
  0.092858  0.046429  0.030953     48.000000
  0.108335  0.046429  0.030953     48.000000
  0.123811  0.046429  0.030953     24.000000
  0.061906  0.061906  0.030953     24.000000
  0.077382  0.061906  0.030953     48.000000
  0.092858  0.061906  0.030953     48.000000
  0.108335  0.061906  0.030953     48.000000
  0.123811  0.061906  0.030953     24.000000
  0.077382  0.077382  0.030953     24.000000
  0.092858  0.077382  0.030953     48.000000
  0.108335  0.077382  0.030953     48.000000
  0.123811  0.077382  0.030953     24.000000
  0.092858  0.092858  0.030953     24.000000
  0.108335  0.092858  0.030953     48.000000
  0.123811  0.092858  0.030953     24.000000
  0.108335  0.108335  0.030953     24.000000
  0.123811  0.108335  0.030953     24.000000
  0.123811  0.123811  0.030953      6.000000
  0.046429  0.046429  0.046429      8.000000
  0.061906  0.046429  0.046429     24.000000
  0.077382  0.046429  0.046429     24.000000
  0.092858  0.046429  0.046429     24.000000
  0.108335  0.046429  0.046429     24.000000
  0.123811  0.046429  0.046429     12.000000
  0.061906  0.061906  0.046429     24.000000
  0.077382  0.061906  0.046429     48.000000
  0.092858  0.061906  0.046429     48.000000
  0.108335  0.061906  0.046429     48.000000
  0.123811  0.061906  0.046429     24.000000
  0.077382  0.077382  0.046429     24.000000
  0.092858  0.077382  0.046429     48.000000
  0.108335  0.077382  0.046429     48.000000
  0.123811  0.077382  0.046429     24.000000
  0.092858  0.092858  0.046429     24.000000
  0.108335  0.092858  0.046429     48.000000
  0.123811  0.092858  0.046429     24.000000
  0.108335  0.108335  0.046429     24.000000
  0.123811  0.108335  0.046429     24.000000
  0.123811  0.123811  0.046429      6.000000
  0.061906  0.061906  0.061906      8.000000
  0.077382  0.061906  0.061906     24.000000
  0.092858  0.061906  0.061906     24.000000
  0.108335  0.061906  0.061906     24.000000
  0.123811  0.061906  0.061906     12.000000
  0.077382  0.077382  0.061906     24.000000
  0.092858  0.077382  0.061906     48.000000
  0.108335  0.077382  0.061906     48.000000
  0.123811  0.077382  0.061906     24.000000
  0.092858  0.092858  0.061906     24.000000
  0.108335  0.092858  0.061906     48.000000
  0.123811  0.092858  0.061906     24.000000
  0.108335  0.108335  0.061906     24.000000
  0.123811  0.108335  0.061906     24.000000
  0.123811  0.123811  0.061906      6.000000
  0.077382  0.077382  0.077382      8.000000
  0.092858  0.077382  0.077382     24.000000
  0.108335  0.077382  0.077382     24.000000
  0.123811  0.077382  0.077382     12.000000
  0.092858  0.092858  0.077382     24.000000
  0.108335  0.092858  0.077382     48.000000
  0.123811  0.092858  0.077382     24.000000
  0.108335  0.108335  0.077382     24.000000
  0.123811  0.108335  0.077382     24.000000
  0.123811  0.123811  0.077382      6.000000
  0.092858  0.092858  0.092858      8.000000
  0.108335  0.092858  0.092858     24.000000
  0.123811  0.092858  0.092858     12.000000
  0.108335  0.108335  0.092858     24.000000
  0.123811  0.108335  0.092858     24.000000
  0.123811  0.123811  0.092858      6.000000
  0.108335  0.108335  0.108335      8.000000
  0.123811  0.108335  0.108335     12.000000
  0.123811  0.123811  0.108335      6.000000
  0.123811  0.123811  0.123811      1.000000
 


--------------------------------------------------------------------------------------------------------




 Dimension of arrays:
   k-points           NKPTS =    165   k-points in BZ     NKDIM =    165   number of bands    NBANDS=     24
   number of dos      NEDOS =    301   number of ions     NIONS =      4
   non local maximal  LDIM  =      4   non local SUM 2l+1 LMDIM =      8
   total plane-waves  NPLWV =   8000
   max r-space proj   IRMAX =      1   max aug-charges    IRDMAX=   5379
   dimension x,y,z NGX =    20 NGY =   20 NGZ =   20
   dimension x,y,z NGXF=    40 NGYF=   40 NGZF=   40
   support grid    NGXF=    40 NGYF=   40 NGZF=   40
   ions per type =               4
   NGX,Y,Z   is equivalent  to a cutoff of   8.49,  8.49,  8.49 a.u.
   NGXF,Y,Z  is equivalent  to a cutoff of  16.98, 16.98, 16.98 a.u.

 SYSTEM =  unknown system                          
 POSCAR =  Al4                                     

 Startparameter for this run:
   NWRITE =      2    write-flag & timer
   PREC   = normal    normal or accurate (medium, high low for compatibility)
   ISTART =      0    job   : 0-new  1-cont  2-samecut
   ICHARG =      2    charge: 1-file 2-atom 10-const
   ISPIN  =      1    spin polarized calculation?
   LNONCOLLINEAR =      F non collinear calculations
   LSORBIT =      F    spin-orbit coupling
   INIWAV =      1    electr: 0-lowe 1-rand  2-diag
   LASPH  =      F    aspherical Exc in radial PAW
 Electronic Relaxation 1
   ENCUT  =  400.0 eV  29.40 Ry    5.42 a.u.   6.39  6.39  6.39*2*pi/ulx,y,z
   ENINI  =  400.0     initial cutoff
   ENAUG  =  291.1 eV  augmentation charge cutoff
   NELM   =     60;   NELMIN=  2; NELMDL= -5     # of ELM steps 
   EDIFF  = 0.1E-04   stopping-criterion for ELM
   LREAL  =      F    real-space projection
   NLSPLINE    = F    spline interpolate recip. space projectors
   LCOMPAT=      F    compatible to vasp.4.4
   GGA_COMPAT  = T    GGA compatible to vasp.4.4-vasp.4.6
   LMAXPAW     = -100 max onsite density
   LMAXMIX     =    2 max onsite mixed and CHGCAR
   VOSKOWN=      0    Vosko Wilk Nusair interpolation
   ROPT   =    0.00000
 Ionic relaxation
   EDIFFG = -.1E-01   stopping-criterion for IOM
   NSW    =    100    number of steps for IOM
   NBLOCK =      1;   KBLOCK =    100    inner block; outer block 
   IBRION =      2    ionic relax: 0-MD 1-quasi-New 2-CG
   NFREE  =      1    steps in history (QN), initial steepest desc. (CG)
   ISIF   =      4    stress and relaxation
   IWAVPR =     11    prediction:  0-non 1-charg 2-wave 3-comb
   ISYM   =      2    0-nonsym 1-usesym 2-fastsym
   LCORR  =      T    Harris-Foulkes like correction to forces

   POTIM  = 0.5000    time-step for ionic-motion
   TEIN   =    0.0    initial temperature
   TEBEG  =    0.0;   TEEND  =   0.0 temperature during run
   SMASS  =  -3.00    Nose mass-parameter (am)
   estimated Nose-frequenzy (Omega)   =  0.10E-29 period in steps = 0.13E+47 mass=  -0.351E-27a.u.
   SCALEE = 1.0000    scale energy and forces
   NPACO  =    256;   APACO  = 10.0  distance and # of slots for P.C.
   PSTRESS=    0.0 pullay stress

  Mass of Ions in am
   POMASS =  26.98
  Ionic Valenz
   ZVAL   =   3.00
  Atomic Wigner-Seitz radii
   RWIGS  =  -1.00
  virtual crystal weights 
   VCA    =   1.00
   NELECT =      12.0000    total number of electrons
   NUPDOWN=      -1.0000    fix difference up-down

 DOS related values:
   EMIN   =  10.00;   EMAX   =-10.00  energy-range for DOS
   EFERMI =   0.00
   ISMEAR =     0;   SIGMA  =   0.05  broadening in eV -4-tet -1-fermi 0-gaus

 Electronic relaxation 2 (details)
   IALGO  =     38    algorithm
   LDIAG  =      T    sub-space diagonalisation (order eigenvalues)
   LSUBROT=      F    optimize rotation matrix (better conditioning)
   TURBO    =      0    0=normal 1=particle mesh
   IRESTART =      0    0=no restart 2=restart with 2 vectors
   NREBOOT  =      0    no. of reboots
   NMIN     =      0    reboot dimension
   EREF     =   0.00    reference energy to select bands
   IMIX   =      4    mixing-type and parameters
     AMIX     =   0.40;   BMIX     =  1.00
     AMIX_MAG =   1.60;   BMIX_MAG =  1.00
     AMIN     =   0.10
     WC   =   100.;   INIMIX=   1;  MIXPRE=   1;  MAXMIX= -45

 Intra band minimization:
   WEIMIN = 0.0010     energy-eigenvalue tresh-hold
   EBREAK =  0.10E-06  absolut break condition
   DEPER  =   0.30     relativ break condition  

   TIME   =   0.40     timestep for ELM

  volume/ion in A,a.u.               =      15.03       101.41
  Fermi-wavevector in a.u.,A,eV,Ry     =   0.956796  1.808083 12.455575  0.915459
  Thomas-Fermi vector in A             =   2.085757
 
 Write flags
   LWAVE        =      T    write WAVECAR
   LDOWNSAMPLE  =      F    k-point downsampling of WAVECAR
   LCHARG       =      T    write CHGCAR
   LVTOT        =      F    write LOCPOT, total local potential
   LVHAR        =      F    write LOCPOT, Hartree potential only
   LELF         =      F    write electronic localiz. function (ELF)
   LORBIT       =      0    0 simple, 1 ext, 2 COOP (PROOUT), +10 PAW based schemes


 Dipole corrections
   LMONO  =      F    monopole corrections only (constant potential shift)
   LDIPOL =      F    correct potential (dipole corrections)
   IDIPOL =      0    1-x, 2-y, 3-z, 4-all directions 
   EPSILON=  1.0000000 bulk dielectric constant

 Exchange correlation treatment:
   GGA     =    --    GGA type
   LEXCH   =     8    internal setting for exchange type
   LIBXC   =     F    Libxc                    
   VOSKOWN =     0    Vosko Wilk Nusair interpolation
   LHFCALC =     F    Hartree Fock is set to
   LHFONE  =     F    Hartree Fock one center treatment
   AEXX    =    0.0000 exact exchange contribution

 Linear response parameters
   LEPSILON=     F    determine dielectric tensor
   LRPA    =     F    only Hartree local field effects (RPA)
   LNABLA  =     F    use nabla operator in PAW spheres
   LVEL    =     F    velocity operator in full k-point grid
   CSHIFT  =0.1000    complex shift for real part using Kramers Kronig
   OMEGAMAX=  -1.0    maximum frequency
   DEG_THRESHOLD= 0.2000000E-02 threshold for treating states as degnerate
   RTIME   =   -0.100 relaxation time in fs
  (WPLASMAI=    0.000 imaginary part of plasma frequency in eV, 0.658/RTIME)
   DFIELD  = 0.0000000 0.0000000 0.0000000 field for delta impulse in time
 
  Optional k-point grid parameters
   LKPOINTS_OPT  =     F    use optional k-point grid
   KPOINTS_OPT_MODE=     1    mode for optional k-point grid
 
 Orbital magnetization related:
   ORBITALMAG=     F  switch on orbital magnetization
   LCHIMAG   =     F  perturbation theory with respect to B field
   DQ        =  0.001000  dq finite difference perturbation B field
   LLRAUG    =     F  two centre corrections for induced B field



--------------------------------------------------------------------------------------------------------


 conjugate gradient relaxation of ions
 charge density and potential will be updated during run
 non-spin polarized calculation
 Variant of blocked Davidson
 Davidson routine will perform the subspace rotation
 perform sub-space diagonalisation
    after iterative eigenvector-optimisation
 modified Broyden-mixing scheme, WC =      100.0
 initial mixing is a Kerker type mixing with AMIX =  0.4000 and BMIX =      1.0000
 Hartree-type preconditioning will be used
 using additional bands           18
 reciprocal scheme for non local part
 use partial core corrections
 calculate Harris-corrections to forces 
   (improved forces if not selfconsistent)
 use gradient corrections 
 use of overlap-Matrix (Vanderbilt PP)
 Gauss-broadening in eV      SIGMA  =   0.05


--------------------------------------------------------------------------------------------------------


  energy-cutoff  :      400.00
  volume of cell :       60.11
      direct lattice vectors                 reciprocal lattice vectors
     3.917260774  0.000000000  0.000000000     0.255280426  0.000000000  0.000000000
     0.000000000  3.917260774  0.000000000     0.000000000  0.255280426  0.000000000
     0.000000000  0.000000000  3.917260774     0.000000000  0.000000000  0.255280426

  length of vectors
     3.917260774  3.917260774  3.917260774     0.255280426  0.255280426  0.255280426


 
 k-points in units of 2pi/SCALE and weight: k-points                                
   0.00000000  0.00000000  0.00000000       0.000
   0.01547638  0.00000000  0.00000000       0.001
   0.03095275  0.00000000  0.00000000       0.001
   0.04642913  0.00000000  0.00000000       0.001
   0.06190550  0.00000000  0.00000000       0.001
   0.07738188  0.00000000  0.00000000       0.001
   0.09285826  0.00000000  0.00000000       0.001
   0.10833463  0.00000000  0.00000000       0.001
   0.12381101  0.00000000  0.00000000       0.001
   0.01547638  0.01547638  0.00000000       0.003
   0.03095275  0.01547638  0.00000000       0.006
   0.04642913  0.01547638  0.00000000       0.006
   0.06190550  0.01547638  0.00000000       0.006
   0.07738188  0.01547638  0.00000000       0.006
   0.09285826  0.01547638  0.00000000       0.006
   0.10833463  0.01547638  0.00000000       0.006
   0.12381101  0.01547638  0.00000000       0.003
   0.03095275  0.03095275  0.00000000       0.003
   0.04642913  0.03095275  0.00000000       0.006
   0.06190550  0.03095275  0.00000000       0.006
   0.07738188  0.03095275  0.00000000       0.006
   0.09285826  0.03095275  0.00000000       0.006
   0.10833463  0.03095275  0.00000000       0.006
   0.12381101  0.03095275  0.00000000       0.003
   0.04642913  0.04642913  0.00000000       0.003
   0.06190550  0.04642913  0.00000000       0.006
   0.07738188  0.04642913  0.00000000       0.006
   0.09285826  0.04642913  0.00000000       0.006
   0.10833463  0.04642913  0.00000000       0.006
   0.12381101  0.04642913  0.00000000       0.003
   0.06190550  0.06190550  0.00000000       0.003
   0.07738188  0.06190550  0.00000000       0.006
   0.09285826  0.06190550  0.00000000       0.006
   0.10833463  0.06190550  0.00000000       0.006
   0.12381101  0.06190550  0.00000000       0.003
   0.07738188  0.07738188  0.00000000       0.003
   0.09285826  0.07738188  0.00000000       0.006
   0.10833463  0.07738188  0.00000000       0.006
   0.12381101  0.07738188  0.00000000       0.003
   0.09285826  0.09285826  0.00000000       0.003
   0.10833463  0.09285826  0.00000000       0.006
   0.12381101  0.09285826  0.00000000       0.003
   0.10833463  0.10833463  0.00000000       0.003
   0.12381101  0.10833463  0.00000000       0.003
   0.12381101  0.12381101  0.00000000       0.001
   0.01547638  0.01547638  0.01547638       0.002
   0.03095275  0.01547638  0.01547638       0.006
   0.04642913  0.01547638  0.01547638       0.006
   0.06190550  0.01547638  0.01547638       0.006
   0.07738188  0.01547638  0.01547638       0.006
   0.09285826  0.01547638  0.01547638       0.006
   0.10833463  0.01547638  0.01547638       0.006
   0.12381101  0.01547638  0.01547638       0.003
   0.03095275  0.03095275  0.01547638       0.006
   0.04642913  0.03095275  0.01547638       0.012
   0.06190550  0.03095275  0.01547638       0.012
   0.07738188  0.03095275  0.01547638       0.012
   0.09285826  0.03095275  0.01547638       0.012
   0.10833463  0.03095275  0.01547638       0.012
   0.12381101  0.03095275  0.01547638       0.006
   0.04642913  0.04642913  0.01547638       0.006
   0.06190550  0.04642913  0.01547638       0.012
   0.07738188  0.04642913  0.01547638       0.012
   0.09285826  0.04642913  0.01547638       0.012
   0.10833463  0.04642913  0.01547638       0.012
   0.12381101  0.04642913  0.01547638       0.006
   0.06190550  0.06190550  0.01547638       0.006
   0.07738188  0.06190550  0.01547638       0.012
   0.09285826  0.06190550  0.01547638       0.012
   0.10833463  0.06190550  0.01547638       0.012
   0.12381101  0.06190550  0.01547638       0.006
   0.07738188  0.07738188  0.01547638       0.006
   0.09285826  0.07738188  0.01547638       0.012
   0.10833463  0.07738188  0.01547638       0.012
   0.12381101  0.07738188  0.01547638       0.006
   0.09285826  0.09285826  0.01547638       0.006
   0.10833463  0.09285826  0.01547638       0.012
   0.12381101  0.09285826  0.01547638       0.006
   0.10833463  0.10833463  0.01547638       0.006
   0.12381101  0.10833463  0.01547638       0.006
   0.12381101  0.12381101  0.01547638       0.001
   0.03095275  0.03095275  0.03095275       0.002
   0.04642913  0.03095275  0.03095275       0.006
   0.06190550  0.03095275  0.03095275       0.006
   0.07738188  0.03095275  0.03095275       0.006
   0.09285826  0.03095275  0.03095275       0.006
   0.10833463  0.03095275  0.03095275       0.006
   0.12381101  0.03095275  0.03095275       0.003
   0.04642913  0.04642913  0.03095275       0.006
   0.06190550  0.04642913  0.03095275       0.012
   0.07738188  0.04642913  0.03095275       0.012
   0.09285826  0.04642913  0.03095275       0.012
   0.10833463  0.04642913  0.03095275       0.012
   0.12381101  0.04642913  0.03095275       0.006
   0.06190550  0.06190550  0.03095275       0.006
   0.07738188  0.06190550  0.03095275       0.012
   0.09285826  0.06190550  0.03095275       0.012
   0.10833463  0.06190550  0.03095275       0.012
   0.12381101  0.06190550  0.03095275       0.006
   0.07738188  0.07738188  0.03095275       0.006
   0.09285826  0.07738188  0.03095275       0.012
   0.10833463  0.07738188  0.03095275       0.012
   0.12381101  0.07738188  0.03095275       0.006
   0.09285826  0.09285826  0.03095275       0.006
   0.10833463  0.09285826  0.03095275       0.012
   0.12381101  0.09285826  0.03095275       0.006
   0.10833463  0.10833463  0.03095275       0.006
   0.12381101  0.10833463  0.03095275       0.006
   0.12381101  0.12381101  0.03095275       0.001
   0.04642913  0.04642913  0.04642913       0.002
   0.06190550  0.04642913  0.04642913       0.006
   0.07738188  0.04642913  0.04642913       0.006
   0.09285826  0.04642913  0.04642913       0.006
   0.10833463  0.04642913  0.04642913       0.006
   0.12381101  0.04642913  0.04642913       0.003
   0.06190550  0.06190550  0.04642913       0.006
   0.07738188  0.06190550  0.04642913       0.012
   0.09285826  0.06190550  0.04642913       0.012
   0.10833463  0.06190550  0.04642913       0.012
   0.12381101  0.06190550  0.04642913       0.006
   0.07738188  0.07738188  0.04642913       0.006
   0.09285826  0.07738188  0.04642913       0.012
   0.10833463  0.07738188  0.04642913       0.012
   0.12381101  0.07738188  0.04642913       0.006
   0.09285826  0.09285826  0.04642913       0.006
   0.10833463  0.09285826  0.04642913       0.012
   0.12381101  0.09285826  0.04642913       0.006
   0.10833463  0.10833463  0.04642913       0.006
   0.12381101  0.10833463  0.04642913       0.006
   0.12381101  0.12381101  0.04642913       0.001
   0.06190550  0.06190550  0.06190550       0.002
   0.07738188  0.06190550  0.06190550       0.006
   0.09285826  0.06190550  0.06190550       0.006
   0.10833463  0.06190550  0.06190550       0.006
   0.12381101  0.06190550  0.06190550       0.003
   0.07738188  0.07738188  0.06190550       0.006
   0.09285826  0.07738188  0.06190550       0.012
   0.10833463  0.07738188  0.06190550       0.012
   0.12381101  0.07738188  0.06190550       0.006
   0.09285826  0.09285826  0.06190550       0.006
   0.10833463  0.09285826  0.06190550       0.012
   0.12381101  0.09285826  0.06190550       0.006
   0.10833463  0.10833463  0.06190550       0.006
   0.12381101  0.10833463  0.06190550       0.006
   0.12381101  0.12381101  0.06190550       0.001
   0.07738188  0.07738188  0.07738188       0.002
   0.09285826  0.07738188  0.07738188       0.006
   0.10833463  0.07738188  0.07738188       0.006
   0.12381101  0.07738188  0.07738188       0.003
   0.09285826  0.09285826  0.07738188       0.006
   0.10833463  0.09285826  0.07738188       0.012
   0.12381101  0.09285826  0.07738188       0.006
   0.10833463  0.10833463  0.07738188       0.006
   0.12381101  0.10833463  0.07738188       0.006
   0.12381101  0.12381101  0.07738188       0.001
   0.09285826  0.09285826  0.09285826       0.002
   0.10833463  0.09285826  0.09285826       0.006
   0.12381101  0.09285826  0.09285826       0.003
   0.10833463  0.10833463  0.09285826       0.006
   0.12381101  0.10833463  0.09285826       0.006
   0.12381101  0.12381101  0.09285826       0.001
   0.10833463  0.10833463  0.10833463       0.002
   0.12381101  0.10833463  0.10833463       0.003
   0.12381101  0.12381101  0.10833463       0.001
   0.12381101  0.12381101  0.12381101       0.000
 
 k-points in reciprocal lattice and weights: k-points                                
   0.00000000  0.00000000  0.00000000       0.000
   0.06250000  0.00000000  0.00000000       0.001
   0.12500000  0.00000000  0.00000000       0.001
   0.18750000  0.00000000  0.00000000       0.001
   0.25000000  0.00000000  0.00000000       0.001
   0.31250000  0.00000000  0.00000000       0.001
   0.37500000  0.00000000  0.00000000       0.001
   0.43750000  0.00000000  0.00000000       0.001
   0.50000000  0.00000000  0.00000000       0.001
   0.06250000  0.06250000  0.00000000       0.003
   0.12500000  0.06250000  0.00000000       0.006
   0.18750000  0.06250000  0.00000000       0.006
   0.25000000  0.06250000  0.00000000       0.006
   0.31250000  0.06250000  0.00000000       0.006
   0.37500000  0.06250000  0.00000000       0.006
   0.43750000  0.06250000  0.00000000       0.006
   0.50000000  0.06250000  0.00000000       0.003
   0.12500000  0.12500000  0.00000000       0.003
   0.18750000  0.12500000  0.00000000       0.006
   0.25000000  0.12500000  0.00000000       0.006
   0.31250000  0.12500000  0.00000000       0.006
   0.37500000  0.12500000  0.00000000       0.006
   0.43750000  0.12500000  0.00000000       0.006
   0.50000000  0.12500000  0.00000000       0.003
   0.18750000  0.18750000  0.00000000       0.003
   0.25000000  0.18750000  0.00000000       0.006
   0.31250000  0.18750000  0.00000000       0.006
   0.37500000  0.18750000  0.00000000       0.006
   0.43750000  0.18750000  0.00000000       0.006
   0.50000000  0.18750000  0.00000000       0.003
   0.25000000  0.25000000  0.00000000       0.003
   0.31250000  0.25000000  0.00000000       0.006
   0.37500000  0.25000000  0.00000000       0.006
   0.43750000  0.25000000  0.00000000       0.006
   0.50000000  0.25000000  0.00000000       0.003
   0.31250000  0.31250000  0.00000000       0.003
   0.37500000  0.31250000  0.00000000       0.006
   0.43750000  0.31250000  0.00000000       0.006
   0.50000000  0.31250000  0.00000000       0.003
   0.37500000  0.37500000  0.00000000       0.003
   0.43750000  0.37500000  0.00000000       0.006
   0.50000000  0.37500000  0.00000000       0.003
   0.43750000  0.43750000  0.00000000       0.003
   0.50000000  0.43750000  0.00000000       0.003
   0.50000000  0.50000000  0.00000000       0.001
   0.06250000  0.06250000  0.06250000       0.002
   0.12500000  0.06250000  0.06250000       0.006
   0.18750000  0.06250000  0.06250000       0.006
   0.25000000  0.06250000  0.06250000       0.006
   0.31250000  0.06250000  0.06250000       0.006
   0.37500000  0.06250000  0.06250000       0.006
   0.43750000  0.06250000  0.06250000       0.006
   0.50000000  0.06250000  0.06250000       0.003
   0.12500000  0.12500000  0.06250000       0.006
   0.18750000  0.12500000  0.06250000       0.012
   0.25000000  0.12500000  0.06250000       0.012
   0.31250000  0.12500000  0.06250000       0.012
   0.37500000  0.12500000  0.06250000       0.012
   0.43750000  0.12500000  0.06250000       0.012
   0.50000000  0.12500000  0.06250000       0.006
   0.18750000  0.18750000  0.06250000       0.006
   0.25000000  0.18750000  0.06250000       0.012
   0.31250000  0.18750000  0.06250000       0.012
   0.37500000  0.18750000  0.06250000       0.012
   0.43750000  0.18750000  0.06250000       0.012
   0.50000000  0.18750000  0.06250000       0.006
   0.25000000  0.25000000  0.06250000       0.006
   0.31250000  0.25000000  0.06250000       0.012
   0.37500000  0.25000000  0.06250000       0.012
   0.43750000  0.25000000  0.06250000       0.012
   0.50000000  0.25000000  0.06250000       0.006
   0.31250000  0.31250000  0.06250000       0.006
   0.37500000  0.31250000  0.06250000       0.012
   0.43750000  0.31250000  0.06250000       0.012
   0.50000000  0.31250000  0.06250000       0.006
   0.37500000  0.37500000  0.06250000       0.006
   0.43750000  0.37500000  0.06250000       0.012
   0.50000000  0.37500000  0.06250000       0.006
   0.43750000  0.43750000  0.06250000       0.006
   0.50000000  0.43750000  0.06250000       0.006
   0.50000000  0.50000000  0.06250000       0.001
   0.12500000  0.12500000  0.12500000       0.002
   0.18750000  0.12500000  0.12500000       0.006
   0.25000000  0.12500000  0.12500000       0.006
   0.31250000  0.12500000  0.12500000       0.006
   0.37500000  0.12500000  0.12500000       0.006
   0.43750000  0.12500000  0.12500000       0.006
   0.50000000  0.12500000  0.12500000       0.003
   0.18750000  0.18750000  0.12500000       0.006
   0.25000000  0.18750000  0.12500000       0.012
   0.31250000  0.18750000  0.12500000       0.012
   0.37500000  0.18750000  0.12500000       0.012
   0.43750000  0.18750000  0.12500000       0.012
   0.50000000  0.18750000  0.12500000       0.006
   0.25000000  0.25000000  0.12500000       0.006
   0.31250000  0.25000000  0.12500000       0.012
   0.37500000  0.25000000  0.12500000       0.012
   0.43750000  0.25000000  0.12500000       0.012
   0.50000000  0.25000000  0.12500000       0.006
   0.31250000  0.31250000  0.12500000       0.006
   0.37500000  0.31250000  0.12500000       0.012
   0.43750000  0.31250000  0.12500000       0.012
   0.50000000  0.31250000  0.12500000       0.006
   0.37500000  0.37500000  0.12500000       0.006
   0.43750000  0.37500000  0.12500000       0.012
   0.50000000  0.37500000  0.12500000       0.006
   0.43750000  0.43750000  0.12500000       0.006
   0.50000000  0.43750000  0.12500000       0.006
   0.50000000  0.50000000  0.12500000       0.001
   0.18750000  0.18750000  0.18750000       0.002
   0.25000000  0.18750000  0.18750000       0.006
   0.31250000  0.18750000  0.18750000       0.006
   0.37500000  0.18750000  0.18750000       0.006
   0.43750000  0.18750000  0.18750000       0.006
   0.50000000  0.18750000  0.18750000       0.003
   0.25000000  0.25000000  0.18750000       0.006
   0.31250000  0.25000000  0.18750000       0.012
   0.37500000  0.25000000  0.18750000       0.012
   0.43750000  0.25000000  0.18750000       0.012
   0.50000000  0.25000000  0.18750000       0.006
   0.31250000  0.31250000  0.18750000       0.006
   0.37500000  0.31250000  0.18750000       0.012
   0.43750000  0.31250000  0.18750000       0.012
   0.50000000  0.31250000  0.18750000       0.006
   0.37500000  0.37500000  0.18750000       0.006
   0.43750000  0.37500000  0.18750000       0.012
   0.50000000  0.37500000  0.18750000       0.006
   0.43750000  0.43750000  0.18750000       0.006
   0.50000000  0.43750000  0.18750000       0.006
   0.50000000  0.50000000  0.18750000       0.001
   0.25000000  0.25000000  0.25000000       0.002
   0.31250000  0.25000000  0.25000000       0.006
   0.37500000  0.25000000  0.25000000       0.006
   0.43750000  0.25000000  0.25000000       0.006
   0.50000000  0.25000000  0.25000000       0.003
   0.31250000  0.31250000  0.25000000       0.006
   0.37500000  0.31250000  0.25000000       0.012
   0.43750000  0.31250000  0.25000000       0.012
   0.50000000  0.31250000  0.25000000       0.006
   0.37500000  0.37500000  0.25000000       0.006
   0.43750000  0.37500000  0.25000000       0.012
   0.50000000  0.37500000  0.25000000       0.006
   0.43750000  0.43750000  0.25000000       0.006
   0.50000000  0.43750000  0.25000000       0.006
   0.50000000  0.50000000  0.25000000       0.001
   0.31250000  0.31250000  0.31250000       0.002
   0.37500000  0.31250000  0.31250000       0.006
   0.43750000  0.31250000  0.31250000       0.006
   0.50000000  0.31250000  0.31250000       0.003
   0.37500000  0.37500000  0.31250000       0.006
   0.43750000  0.37500000  0.31250000       0.012
   0.50000000  0.37500000  0.31250000       0.006
   0.43750000  0.43750000  0.31250000       0.006
   0.50000000  0.43750000  0.31250000       0.006
   0.50000000  0.50000000  0.31250000       0.001
   0.37500000  0.37500000  0.37500000       0.002
   0.43750000  0.37500000  0.37500000       0.006
   0.50000000  0.37500000  0.37500000       0.003
   0.43750000  0.43750000  0.37500000       0.006
   0.50000000  0.43750000  0.37500000       0.006
   0.50000000  0.50000000  0.37500000       0.001
   0.43750000  0.43750000  0.43750000       0.002
   0.50000000  0.43750000  0.43750000       0.003
   0.50000000  0.50000000  0.43750000       0.001
   0.50000000  0.50000000  0.50000000       0.000
 
 position of ions in fractional coordinates (direct lattice) 
   0.00000000  0.00000000  0.00000000
   0.00000000  0.50000000  0.50000000
   0.50000000  0.00000000  0.50000000
   0.50000000  0.50000000  0.00000000
 
 position of ions in cartesian coordinates  (Angst):
   0.00000000  0.00000000  0.00000000
   0.00000000  1.95863039  1.95863039
   1.95863039  0.00000000  1.95863039
   1.95863039  1.95863039  0.00000000
 


--------------------------------------------------------------------------------------------------------


 k-point   1 :   0.0000 0.0000 0.0000  plane waves:    1045
 k-point   2 :   0.0625 0.0000 0.0000  plane waves:    1081
 k-point   3 :   0.1250 0.0000 0.0000  plane waves:    1093
 k-point   4 :   0.1875 0.0000 0.0000  plane waves:    1101
 k-point   5 :   0.2500 0.0000 0.0000  plane waves:    1097
 k-point   6 :   0.3125 0.0000 0.0000  plane waves:    1089
 k-point   7 :   0.3750 0.0000 0.0000  plane waves:    1093
 k-point   8 :   0.4375 0.0000 0.0000  plane waves:    1092
 k-point   9 :   0.5000 0.0000 0.0000  plane waves:    1108
 k-point  10 :   0.0625 0.0625 0.0000  plane waves:    1079
 k-point  11 :   0.1250 0.0625 0.0000  plane waves:    1092
 k-point  12 :   0.1875 0.0625 0.0000  plane waves:    1100
 k-point  13 :   0.2500 0.0625 0.0000  plane waves:    1088
 k-point  14 :   0.3125 0.0625 0.0000  plane waves:    1093
 k-point  15 :   0.3750 0.0625 0.0000  plane waves:    1096
 k-point  16 :   0.4375 0.0625 0.0000  plane waves:    1100
 k-point  17 :   0.5000 0.0625 0.0000  plane waves:    1112
 k-point  18 :   0.1250 0.1250 0.0000  plane waves:    1095
 k-point  19 :   0.1875 0.1250 0.0000  plane waves:    1102
 k-point  20 :   0.2500 0.1250 0.0000  plane waves:    1096
 k-point  21 :   0.3125 0.1250 0.0000  plane waves:    1096
 k-point  22 :   0.3750 0.1250 0.0000  plane waves:    1095
 k-point  23 :   0.4375 0.1250 0.0000  plane waves:    1103
 k-point  24 :   0.5000 0.1250 0.0000  plane waves:    1110
 k-point  25 :   0.1875 0.1875 0.0000  plane waves:    1095
 k-point  26 :   0.2500 0.1875 0.0000  plane waves:    1090
 k-point  27 :   0.3125 0.1875 0.0000  plane waves:    1095
 k-point  28 :   0.3750 0.1875 0.0000  plane waves:    1101
 k-point  29 :   0.4375 0.1875 0.0000  plane waves:    1099
 k-point  30 :   0.5000 0.1875 0.0000  plane waves:    1098
 k-point  31 :   0.2500 0.2500 0.0000  plane waves:    1103
 k-point  32 :   0.3125 0.2500 0.0000  plane waves:    1093
 k-point  33 :   0.3750 0.2500 0.0000  plane waves:    1094
 k-point  34 :   0.4375 0.2500 0.0000  plane waves:    1099
 k-point  35 :   0.5000 0.2500 0.0000  plane waves:    1090
 k-point  36 :   0.3125 0.3125 0.0000  plane waves:    1091
 k-point  37 :   0.3750 0.3125 0.0000  plane waves:    1093
 k-point  38 :   0.4375 0.3125 0.0000  plane waves:    1094
 k-point  39 :   0.5000 0.3125 0.0000  plane waves:    1086
 k-point  40 :   0.3750 0.3750 0.0000  plane waves:    1097
 k-point  41 :   0.4375 0.3750 0.0000  plane waves:    1087
 k-point  42 :   0.5000 0.3750 0.0000  plane waves:    1086
 k-point  43 :   0.4375 0.4375 0.0000  plane waves:    1089
 k-point  44 :   0.5000 0.4375 0.0000  plane waves:    1078
 k-point  45 :   0.5000 0.5000 0.0000  plane waves:    1092
 k-point  46 :   0.0625 0.0625 0.0625  plane waves:    1087
 k-point  47 :   0.1250 0.0625 0.0625  plane waves:    1089
 k-point  48 :   0.1875 0.0625 0.0625  plane waves:    1091
 k-point  49 :   0.2500 0.0625 0.0625  plane waves:    1095
 k-point  50 :   0.3125 0.0625 0.0625  plane waves:    1094
 k-point  51 :   0.3750 0.0625 0.0625  plane waves:    1093
 k-point  52 :   0.4375 0.0625 0.0625  plane waves:    1096
 k-point  53 :   0.5000 0.0625 0.0625  plane waves:    1104
 k-point  54 :   0.1250 0.1250 0.0625  plane waves:    1095
 k-point  55 :   0.1875 0.1250 0.0625  plane waves:    1098
 k-point  56 :   0.2500 0.1250 0.0625  plane waves:    1095
 k-point  57 :   0.3125 0.1250 0.0625  plane waves:    1096
 k-point  58 :   0.3750 0.1250 0.0625  plane waves:    1098
 k-point  59 :   0.4375 0.1250 0.0625  plane waves:    1099
 k-point  60 :   0.5000 0.1250 0.0625  plane waves:    1098
 k-point  61 :   0.1875 0.1875 0.0625  plane waves:    1092
 k-point  62 :   0.2500 0.1875 0.0625  plane waves:    1092
 k-point  63 :   0.3125 0.1875 0.0625  plane waves:    1097
 k-point  64 :   0.3750 0.1875 0.0625  plane waves:    1102
 k-point  65 :   0.4375 0.1875 0.0625  plane waves:    1101
 k-point  66 :   0.5000 0.1875 0.0625  plane waves:    1102
 k-point  67 :   0.2500 0.2500 0.0625  plane waves:    1097
 k-point  68 :   0.3125 0.2500 0.0625  plane waves:    1098
 k-point  69 :   0.3750 0.2500 0.0625  plane waves:    1099
 k-point  70 :   0.4375 0.2500 0.0625  plane waves:    1100
 k-point  71 :   0.5000 0.2500 0.0625  plane waves:    1098
 k-point  72 :   0.3125 0.3125 0.0625  plane waves:    1091
 k-point  73 :   0.3750 0.3125 0.0625  plane waves:    1093
 k-point  74 :   0.4375 0.3125 0.0625  plane waves:    1093
 k-point  75 :   0.5000 0.3125 0.0625  plane waves:    1094
 k-point  76 :   0.3750 0.3750 0.0625  plane waves:    1088
 k-point  77 :   0.4375 0.3750 0.0625  plane waves:    1086
 k-point  78 :   0.5000 0.3750 0.0625  plane waves:    1086
 k-point  79 :   0.4375 0.4375 0.0625  plane waves:    1085
 k-point  80 :   0.5000 0.4375 0.0625  plane waves:    1084
 k-point  81 :   0.5000 0.5000 0.0625  plane waves:    1084
 k-point  82 :   0.1250 0.1250 0.1250  plane waves:    1096
 k-point  83 :   0.1875 0.1250 0.1250  plane waves:    1083
 k-point  84 :   0.2500 0.1250 0.1250  plane waves:    1086
 k-point  85 :   0.3125 0.1250 0.1250  plane waves:    1094
 k-point  86 :   0.3750 0.1250 0.1250  plane waves:    1095
 k-point  87 :   0.4375 0.1250 0.1250  plane waves:    1096
 k-point  88 :   0.5000 0.1250 0.1250  plane waves:    1104
 k-point  89 :   0.1875 0.1875 0.1250  plane waves:    1088
 k-point  90 :   0.2500 0.1875 0.1250  plane waves:    1087
 k-point  91 :   0.3125 0.1875 0.1250  plane waves:    1096
 k-point  92 :   0.3750 0.1875 0.1250  plane waves:    1090
 k-point  93 :   0.4375 0.1875 0.1250  plane waves:    1101
 k-point  94 :   0.5000 0.1875 0.1250  plane waves:    1106
 k-point  95 :   0.2500 0.2500 0.1250  plane waves:    1095
 k-point  96 :   0.3125 0.2500 0.1250  plane waves:    1099
 k-point  97 :   0.3750 0.2500 0.1250  plane waves:    1102
 k-point  98 :   0.4375 0.2500 0.1250  plane waves:    1097
 k-point  99 :   0.5000 0.2500 0.1250  plane waves:    1098
 k-point 100 :   0.3125 0.3125 0.1250  plane waves:    1094
 k-point 101 :   0.3750 0.3125 0.1250  plane waves:    1096
 k-point 102 :   0.4375 0.3125 0.1250  plane waves:    1095
 k-point 103 :   0.5000 0.3125 0.1250  plane waves:    1090
 k-point 104 :   0.3750 0.3750 0.1250  plane waves:    1093
 k-point 105 :   0.4375 0.3750 0.1250  plane waves:    1085
 k-point 106 :   0.5000 0.3750 0.1250  plane waves:    1088
 k-point 107 :   0.4375 0.4375 0.1250  plane waves:    1086
 k-point 108 :   0.5000 0.4375 0.1250  plane waves:    1084
 k-point 109 :   0.5000 0.5000 0.1250  plane waves:    1092
 k-point 110 :   0.1875 0.1875 0.1875  plane waves:    1090
 k-point 111 :   0.2500 0.1875 0.1875  plane waves:    1094
 k-point 112 :   0.3125 0.1875 0.1875  plane waves:    1091
 k-point 113 :   0.3750 0.1875 0.1875  plane waves:    1093
 k-point 114 :   0.4375 0.1875 0.1875  plane waves:    1097
 k-point 115 :   0.5000 0.1875 0.1875  plane waves:    1094
 k-point 116 :   0.2500 0.2500 0.1875  plane waves:    1093
 k-point 117 :   0.3125 0.2500 0.1875  plane waves:    1090
 k-point 118 :   0.3750 0.2500 0.1875  plane waves:    1093
 k-point 119 :   0.4375 0.2500 0.1875  plane waves:    1095
 k-point 120 :   0.5000 0.2500 0.1875  plane waves:    1094
 k-point 121 :   0.3125 0.3125 0.1875  plane waves:    1091
 k-point 122 :   0.3750 0.3125 0.1875  plane waves:    1090
 k-point 123 :   0.4375 0.3125 0.1875  plane waves:    1088
 k-point 124 :   0.5000 0.3125 0.1875  plane waves:    1096
 k-point 125 :   0.3750 0.3750 0.1875  plane waves:    1085
 k-point 126 :   0.4375 0.3750 0.1875  plane waves:    1084
 k-point 127 :   0.5000 0.3750 0.1875  plane waves:    1088
 k-point 128 :   0.4375 0.4375 0.1875  plane waves:    1087
 k-point 129 :   0.5000 0.4375 0.1875  plane waves:    1086
 k-point 130 :   0.5000 0.5000 0.1875  plane waves:    1092
 k-point 131 :   0.2500 0.2500 0.2500  plane waves:    1093
 k-point 132 :   0.3125 0.2500 0.2500  plane waves:    1088
 k-point 133 :   0.3750 0.2500 0.2500  plane waves:    1098
 k-point 134 :   0.4375 0.2500 0.2500  plane waves:    1084
 k-point 135 :   0.5000 0.2500 0.2500  plane waves:    1078
 k-point 136 :   0.3125 0.3125 0.2500  plane waves:    1095
 k-point 137 :   0.3750 0.3125 0.2500  plane waves:    1092
 k-point 138 :   0.4375 0.3125 0.2500  plane waves:    1086
 k-point 139 :   0.5000 0.3125 0.2500  plane waves:    1086
 k-point 140 :   0.3750 0.3750 0.2500  plane waves:    1076
 k-point 141 :   0.4375 0.3750 0.2500  plane waves:    1081
 k-point 142 :   0.5000 0.3750 0.2500  plane waves:    1074
 k-point 143 :   0.4375 0.4375 0.2500  plane waves:    1080
 k-point 144 :   0.5000 0.4375 0.2500  plane waves:    1084
 k-point 145 :   0.5000 0.5000 0.2500  plane waves:    1084
 k-point 146 :   0.3125 0.3125 0.3125  plane waves:    1094
 k-point 147 :   0.3750 0.3125 0.3125  plane waves:    1087
 k-point 148 :   0.4375 0.3125 0.3125  plane waves:    1083
 k-point 149 :   0.5000 0.3125 0.3125  plane waves:    1080
 k-point 150 :   0.3750 0.3750 0.3125  plane waves:    1088
 k-point 151 :   0.4375 0.3750 0.3125  plane waves:    1082
 k-point 152 :   0.5000 0.3750 0.3125  plane waves:    1080
 k-point 153 :   0.4375 0.4375 0.3125  plane waves:    1085
 k-point 154 :   0.5000 0.4375 0.3125  plane waves:    1086
 k-point 155 :   0.5000 0.5000 0.3125  plane waves:    1084
 k-point 156 :   0.3750 0.3750 0.3750  plane waves:    1082
 k-point 157 :   0.4375 0.3750 0.3750  plane waves:    1076
 k-point 158 :   0.5000 0.3750 0.3750  plane waves:    1088
 k-point 159 :   0.4375 0.4375 0.3750  plane waves:    1077
 k-point 160 :   0.5000 0.4375 0.3750  plane waves:    1076
 k-point 161 :   0.5000 0.5000 0.3750  plane waves:    1076
 k-point 162 :   0.4375 0.4375 0.4375  plane waves:    1076
 k-point 163 :   0.5000 0.4375 0.4375  plane waves:    1078
 k-point 164 :   0.5000 0.5000 0.4375  plane waves:    1076
 k-point 165 :   0.5000 0.5000 0.5000  plane waves:    1088

 maximum and minimum number of plane-waves per node :      1112     1045

 maximum number of plane-waves:      1112
 maximum index in each direction: 
   IXMAX=    6   IYMAX=    6   IZMAX=    6
   IXMIN=   -6   IYMIN=   -6   IZMIN=   -6


 serial   3D FFT for wavefunctions
 parallel 3D FFT for charge:
    minimum data exchange during FFTs selected (reduces bandwidth)


 total amount of memory used by VASP MPI-rank0    45731. kBytes
=======================================================================

   base      :      30000. kBytes
   nonl-proj :      11983. kBytes
   fftplans  :        147. kBytes
   grid      :        485. kBytes
   one-center:         12. kBytes
   wavefun   :       3104. kBytes
 
     INWAV:  cpu time      0.0000: real time      0.0001
 Broyden mixing: mesh for mixing (old mesh)
   NGX = 13   NGY = 13   NGZ = 13
  (NGX  = 40   NGY  = 40   NGZ  = 40)
  gives a total of   2197 points

 initial charge density was supplied:
 charge density of overlapping atoms calculated
 number of electron      12.0000000 magnetization 
 keeping initial charge density in first step


--------------------------------------------------------------------------------------------------------


 Maximum index for augmentation-charges          349 (set IRDMAX)


--------------------------------------------------------------------------------------------------------


 First call to EWALD:  gamma=   0.452
 Maximum number of real-space cells 3x 3x 3
 Maximum number of reciprocal cells 3x 3x 3

    FEWALD:  cpu time      0.0010: real time      0.0010


--------------------------------------- Iteration      1(   1)  ---------------------------------------


    POTLOK:  cpu time      0.0022: real time      0.0077
    SETDIJ:  cpu time      0.0009: real time      0.0009
     EDDAV:  cpu time      0.4996: real time      0.5090
       DOS:  cpu time      0.0011: real time      0.0050
    --------------------------------------------
      LOOP:  cpu time      0.5038: real time      0.5226

 eigenvalue-minimisations  :  7920
 total energy-change (2. order) :-0.7390622E+01  (-0.3999106E+03)
 number of electron      12.0000000 magnetization 
 augmentation part       12.0000000 magnetization 

 Free energy of the ion-electron system (eV)
  ---------------------------------------------------
  alpha Z        PSCENC =        -0.89404207
  Ewald energy   TEWEN  =      -303.36982044
  -Hartree energ DENC   =        -0.30006244
  -exchange      EXHF   =         0.00000000
  -V(xc)+E(xc)   XCENC  =      -104.27441543
  PAW double counting   =       264.80062850     -136.98248303
  entropy T*S    EENTRO =        -0.00267366
  eigenvalues    EBANDS =        59.47962919
  atomic energy  EATOM  =       214.15261729
  Solvation  Ediel_sol  =         0.00000000
  ---------------------------------------------------
  free energy    TOTEN  =        -7.39062209 eV

  energy without entropy =       -7.38794843  energy(sigma->0) =       -7.38928526


--------------------------------------------------------------------------------------------------------




--------------------------------------- Iteration      1(   2)  ---------------------------------------


     EDDAV:  cpu time      0.7773: real time      0.7819
       DOS:  cpu time      0.0005: real time      0.0005
    --------------------------------------------
      LOOP:  cpu time      0.7778: real time      0.7824

 eigenvalue-minimisations  : 11712
 total energy-change (2. order) :-0.7521172E+01  (-0.7432539E+01)
 number of electron      12.0000000 magnetization 
 augmentation part       12.0000000 magnetization 

 Free energy of the ion-electron system (eV)
  ---------------------------------------------------
  alpha Z        PSCENC =        -0.89404207
  Ewald energy   TEWEN  =      -303.36982044
  -Hartree energ DENC   =        -0.30006244
  -exchange      EXHF   =         0.00000000
  -V(xc)+E(xc)   XCENC  =      -104.27441543
  PAW double counting   =       264.80062850     -136.98248303
  entropy T*S    EENTRO =        -0.00135893
  eigenvalues    EBANDS =        51.95714276
  atomic energy  EATOM  =       214.15261729
  Solvation  Ediel_sol  =         0.00000000
  ---------------------------------------------------
  free energy    TOTEN  =       -14.91179379 eV

  energy without entropy =      -14.91043486  energy(sigma->0) =      -14.91111433


--------------------------------------------------------------------------------------------------------




--------------------------------------- Iteration      1(   3)  ---------------------------------------


     EDDAV:  cpu time      0.7132: real time      0.7169
       DOS:  cpu time      0.0005: real time      0.0005
    --------------------------------------------
      LOOP:  cpu time      0.7137: real time      0.7174

 eigenvalue-minimisations  : 10776
 total energy-change (2. order) :-0.2753650E-01  (-0.2753512E-01)
 number of electron      12.0000000 magnetization 
 augmentation part       12.0000000 magnetization 

 Free energy of the ion-electron system (eV)
  ---------------------------------------------------
  alpha Z        PSCENC =        -0.89404207
  Ewald energy   TEWEN  =      -303.36982044
  -Hartree energ DENC   =        -0.30006244
  -exchange      EXHF   =         0.00000000
  -V(xc)+E(xc)   XCENC  =      -104.27441543
  PAW double counting   =       264.80062850     -136.98248303
  entropy T*S    EENTRO =        -0.00134992
  eigenvalues    EBANDS =        51.92959726
  atomic energy  EATOM  =       214.15261729
  Solvation  Ediel_sol  =         0.00000000
  ---------------------------------------------------
  free energy    TOTEN  =       -14.93933029 eV

  energy without entropy =      -14.93798037  energy(sigma->0) =      -14.93865533


--------------------------------------------------------------------------------------------------------




--------------------------------------- Iteration      1(   4)  ---------------------------------------


     EDDAV:  cpu time      1.0368: real time      1.0418
       DOS:  cpu time      0.0005: real time      0.0005
    --------------------------------------------
      LOOP:  cpu time      1.0374: real time      1.0423

 eigenvalue-minimisations  : 13656
 total energy-change (2. order) :-0.3684687E-04  (-0.3684836E-04)
 number of electron      12.0000000 magnetization 
 augmentation part       12.0000000 magnetization 

 Free energy of the ion-electron system (eV)
  ---------------------------------------------------
  alpha Z        PSCENC =        -0.89404207
  Ewald energy   TEWEN  =      -303.36982044
  -Hartree energ DENC   =        -0.30006244
  -exchange      EXHF   =         0.00000000
  -V(xc)+E(xc)   XCENC  =      -104.27441543
  PAW double counting   =       264.80062850     -136.98248303
  entropy T*S    EENTRO =        -0.00134989
  eigenvalues    EBANDS =        51.92956037
  atomic energy  EATOM  =       214.15261729
  Solvation  Ediel_sol  =         0.00000000
  ---------------------------------------------------
  free energy    TOTEN  =       -14.93936714 eV

  energy without entropy =      -14.93801725  energy(sigma->0) =      -14.93869220


--------------------------------------------------------------------------------------------------------




--------------------------------------- Iteration      1(   5)  ---------------------------------------


     EDDAV:  cpu time      0.6820: real time      0.6856
       DOS:  cpu time      0.0005: real time      0.0005
    CHARGE:  cpu time      0.0106: real time      0.0126
    MIXING:  cpu time      0.0004: real time      0.0022
    --------------------------------------------
      LOOP:  cpu time      0.6935: real time      0.7009

 eigenvalue-minimisations  : 10296
 total energy-change (2. order) :-0.1466458E-07  (-0.1349252E-07)
 number of electron      12.0000002 magnetization 
 augmentation part       -0.1412690 magnetization 

 Broyden mixing:
  rms(total) = 0.29559E+00    rms(broyden)= 0.29559E+00
  rms(prec ) = 0.49984E+00
  weight for this iteration     100.00

 Free energy of the ion-electron system (eV)
  ---------------------------------------------------
  alpha Z        PSCENC =        -0.89404207
  Ewald energy   TEWEN  =      -303.36982044
  -Hartree energ DENC   =        -0.30006244
  -exchange      EXHF   =         0.00000000
  -V(xc)+E(xc)   XCENC  =      -104.27441543
  PAW double counting   =       264.80062850     -136.98248303
  entropy T*S    EENTRO =        -0.00134989
  eigenvalues    EBANDS =        51.92956036
  atomic energy  EATOM  =       214.15261729
  Solvation  Ediel_sol  =         0.00000000
  ---------------------------------------------------
  free energy    TOTEN  =       -14.93936715 eV

  energy without entropy =      -14.93801727  energy(sigma->0) =      -14.93869221


--------------------------------------------------------------------------------------------------------




--------------------------------------- Iteration      1(   6)  ---------------------------------------


    POTLOK:  cpu time      0.0016: real time      0.0018
    SETDIJ:  cpu time      0.0008: real time      0.0008
     EDDAV:  cpu time      0.8733: real time      0.8775
       DOS:  cpu time      0.0005: real time      0.0005
    CHARGE:  cpu time      0.0095: real time      0.0096
    MIXING:  cpu time      0.0002: real time      0.0002
    --------------------------------------------
      LOOP:  cpu time      0.8859: real time      0.8903

 eigenvalue-minimisations  : 12072
 total energy-change (2. order) : 0.5663469E-01  (-0.4761482E-03)
 number of electron      12.0000002 magnetization 
 augmentation part       -0.1431123 magnetization 

 Broyden mixing:
  rms(total) = 0.17168E+00    rms(broyden)= 0.17168E+00
  rms(prec ) = 0.30552E+00
  weight for this iteration     100.00

 eigenvalues of (default mixing * dielectric matrix)
  average eigenvalue GAMMA=   2.3442
  2.3442

 Free energy of the ion-electron system (eV)
  ---------------------------------------------------
  alpha Z        PSCENC =        -0.89404207
  Ewald energy   TEWEN  =      -303.36982044
  -Hartree energ DENC   =        -0.30457999
  -exchange      EXHF   =         0.00000000
  -V(xc)+E(xc)   XCENC  =      -104.10345573
  PAW double counting   =       412.26612170     -284.48824984
  entropy T*S    EENTRO =        -0.00134403
  eigenvalues    EBANDS =        51.86002066
  atomic energy  EATOM  =       214.15261729
  Solvation  Ediel_sol  =         0.00000000
  ---------------------------------------------------
  free energy    TOTEN  =       -14.88273246 eV

  energy without entropy =      -14.88138843  energy(sigma->0) =      -14.88206045


--------------------------------------------------------------------------------------------------------




--------------------------------------- Iteration      1(   7)  ---------------------------------------


    POTLOK:  cpu time      0.0015: real time      0.0016
    SETDIJ:  cpu time      0.0007: real time      0.0007
     EDDAV:  cpu time      0.6852: real time      0.6885
       DOS:  cpu time      0.0005: real time      0.0005
    CHARGE:  cpu time      0.0100: real time      0.0101
    MIXING:  cpu time      0.0002: real time      0.0002
    --------------------------------------------
      LOOP:  cpu time      0.6981: real time      0.7016

 eigenvalue-minimisations  : 10416
 total energy-change (2. order) : 0.4116647E-01  (-0.1397996E-02)
 number of electron      12.0000002 magnetization 
 augmentation part       -0.1468115 magnetization 

 Broyden mixing:
  rms(total) = 0.29416E-01    rms(broyden)= 0.29416E-01
  rms(prec ) = 0.32047E-01
  weight for this iteration     100.00

 eigenvalues of (default mixing * dielectric matrix)
  average eigenvalue GAMMA=   3.0670
  2.7600  3.3740

 Free energy of the ion-electron system (eV)
  ---------------------------------------------------
  alpha Z        PSCENC =        -0.89404207
  Ewald energy   TEWEN  =      -303.36982044
  -Hartree energ DENC   =        -0.47869788
  -exchange      EXHF   =         0.00000000
  -V(xc)+E(xc)   XCENC  =      -103.78041438
  PAW double counting   =       724.10605586     -596.39963037
  entropy T*S    EENTRO =        -0.00133352
  eigenvalues    EBANDS =        51.82369951
  atomic energy  EATOM  =       214.15261729
  Solvation  Ediel_sol  =         0.00000000
  ---------------------------------------------------
  free energy    TOTEN  =       -14.84156599 eV

  energy without entropy =      -14.84023248  energy(sigma->0) =      -14.84089924


--------------------------------------------------------------------------------------------------------




--------------------------------------- Iteration      1(   8)  ---------------------------------------


    POTLOK:  cpu time      0.0015: real time      0.0016
    SETDIJ:  cpu time      0.0007: real time      0.0007
     EDDAV:  cpu time      1.0796: real time      1.0853
       DOS:  cpu time      0.0005: real time      0.0005
    CHARGE:  cpu time      0.0095: real time      0.0096
    MIXING:  cpu time      0.0002: real time      0.0002
    --------------------------------------------
      LOOP:  cpu time      1.0920: real time      1.0979

 eigenvalue-minimisations  : 13944
 total energy-change (2. order) : 0.1326740E-03  (-0.8221881E-05)
 number of electron      12.0000002 magnetization 
 augmentation part       -0.1471608 magnetization 

 Broyden mixing:
  rms(total) = 0.83827E-02    rms(broyden)= 0.83827E-02
  rms(prec ) = 0.92234E-02
  weight for this iteration     100.00

 eigenvalues of (default mixing * dielectric matrix)
  average eigenvalue GAMMA=   2.1013
  1.0400  2.5780  2.6861

 Free energy of the ion-electron system (eV)
  ---------------------------------------------------
  alpha Z        PSCENC =        -0.89404207
  Ewald energy   TEWEN  =      -303.36982044
  -Hartree energ DENC   =        -0.49665304
  -exchange      EXHF   =         0.00000000
  -V(xc)+E(xc)   XCENC  =      -103.75804973
  PAW double counting   =       650.30349836     -522.60494738
  entropy T*S    EENTRO =        -0.00133296
  eigenvalues    EBANDS =        51.82729666
  atomic energy  EATOM  =       214.15261729
  Solvation  Ediel_sol  =         0.00000000
  ---------------------------------------------------
  free energy    TOTEN  =       -14.84143332 eV

  energy without entropy =      -14.84010036  energy(sigma->0) =      -14.84076684


--------------------------------------------------------------------------------------------------------




--------------------------------------- Iteration      1(   9)  ---------------------------------------


    POTLOK:  cpu time      0.0015: real time      0.0017
    SETDIJ:  cpu time      0.0008: real time      0.0008
     EDDAV:  cpu time      0.7532: real time      0.7566
       DOS:  cpu time      0.0005: real time      0.0005
    --------------------------------------------
      LOOP:  cpu time      0.7560: real time      0.7595

 eigenvalue-minimisations  : 10704
 total energy-change (2. order) : 0.8099571E-05  (-0.2906842E-06)
 number of electron      12.0000002 magnetization 
 augmentation part       -0.1471608 magnetization 

 Free energy of the ion-electron system (eV)
  ---------------------------------------------------
  alpha Z        PSCENC =        -0.89404207
  Ewald energy   TEWEN  =      -303.36982044
  -Hartree energ DENC   =        -0.49980039
  -exchange      EXHF   =         0.00000000
  -V(xc)+E(xc)   XCENC  =      -103.75408193
  PAW double counting   =       667.52555122     -539.82731332
  entropy T*S    EENTRO =        -0.00133273
  eigenvalues    EBANDS =        51.82679715
  atomic energy  EATOM  =       214.15261729
  Solvation  Ediel_sol  =         0.00000000
  ---------------------------------------------------
  free energy    TOTEN  =       -14.84142522 eV

  energy without entropy =      -14.84009249  energy(sigma->0) =      -14.84075886


--------------------------------------------------------------------------------------------------------




 average (electrostatic) potential at core
  the test charge radii are     1.0406
  (the norm of the test charge is              1.0000)
       1 -71.4811       2 -71.4811       3 -71.4811       4 -71.4811
 
 
 
 E-fermi :   9.0210     XC(G=0): -10.5394     alpha+bet :-16.3340

 Fermi energy:         9.0209967598

 k-point     1 :       0.0000    0.0000    0.0000
  band No.  band energies     occupation 
      1      -2.7851      2.00000
      2       5.8615      2.00000
      3       5.8615      2.00000
      4       5.8615      2.00000
      5       7.3782      2.00000
      6       7.3782      2.00000
      7       7.3782      2.00000
      8      14.2907      0.00000
      9      14.2907      0.00000
     10      14.2907      0.00000
     11      15.0635      0.00000
     12      15.0635      0.00000
     13      15.0635      0.00000
     14      15.0635      0.00000
     15      15.0635      0.00000
     16      15.0635      0.00000
     17      19.0219      0.00000
     18      19.0219      0.00000
     19      19.0219      0.00000
     20      22.1658      0.00000
     21      22.1658      0.00000
     22      22.1658      0.00000
     23      24.3919      0.00000
     24      24.3919      0.00000

 k-point     2 :       0.0625    0.0000    0.0000
  band No.  band energies     occupation 
[...]
      5       5.3486      2.00000
      6       5.3486      2.00000
      7       7.5740      2.00000
      8       7.5740      2.00000
      9      16.5096      0.00000
     10      16.5096      0.00000
     11      17.7246      0.00000
     12      17.7246      0.00000
     13      18.4920      0.00000
     14      18.4920      0.00000
     15      19.6752      0.00000
     16      19.6752      0.00000
     17      21.2183      0.00000
     18      21.2183      0.00000
     19      22.2774      0.00000
     20      22.2774      0.00000
     21      23.1377      0.00000
     22      23.1377      0.00000
     23      23.8912      0.00000
     24      23.8912      0.00000

 k-point   153 :       0.4375    0.4375    0.3125
  band No.  band energies     occupation 
      1       1.7658      2.00000
      2       2.9198      2.00000
      3       2.9198      2.00000
      4       4.0396      2.00000
      5       5.2775      2.00000
      6       6.3817      2.00000
      7       6.3817      2.00000
      8       7.5051      2.00000
      9      16.5085      0.00000
     10      17.4806      0.00000
     11      17.4806      0.00000
     12      18.5233      0.00000
     13      18.6648      0.00000
     14      18.6648      0.00000
     15      18.9673      0.00000
     16      20.9078      0.00000
     17      20.9798      0.00000
     18      22.0589      0.00000
     19      22.0589      0.00000
     20      22.0856      0.00000
     21      22.6635      0.00000
     22      23.1295      0.00000
     23      23.1295      0.00000
     24      24.1213      0.00000

 k-point   154 :       0.5000    0.4375    0.3125
  band No.  band energies     occupation 
      1       2.3088      2.00000
      2       2.3088      2.00000
      3       3.4528      2.00000
      4       3.4528      2.00000
      5       5.7875      2.00000
      6       5.7875      2.00000
      7       6.9084      2.00000
      8       6.9084      2.00000
      9      16.9856      0.00000
     10      16.9856      0.00000
     11      17.9953      0.00000
     12      17.9953      0.00000
     13      18.9915      0.00000
     14      18.9915      0.00000
     15      19.9959      0.00000
     16      19.9959      0.00000
     17      21.8123      0.00000
     18      21.8123      0.00000
     19      22.2452      0.00000
     20      22.2452      0.00000
     21      22.6942      0.00000
     22      22.6942      0.00000
     23      23.2586      0.00000
     24      23.2586      0.00000

 k-point   155 :       0.5000    0.5000    0.3125
  band No.  band energies     occupation 
      1       2.8481      2.00000
      2       2.8481      2.00000
      3       2.8481      2.00000
      4       2.8481      2.00000
      5       6.3116      2.00000
      6       6.3116      2.00000
      7       6.3116      2.00000
      8       6.3116      2.00000
      9      17.4773      0.00000
     10      17.4773      0.00000
     11      17.4773      0.00000
     12      17.4773      0.00000
     13      19.9210      0.00000
     14      19.9210      0.00000
     15      19.9210      0.00000
     16      19.9210      0.00000
     17      21.8019      0.00000
     18      21.8019      0.00000
     19      21.8019      0.00000
     20      21.8019      0.00000
     21      23.0302      0.00000
     22      23.0302      0.00000
     23      23.0302      0.00000
     24      23.0302      0.00000

 k-point   156 :       0.3750    0.3750    0.3750
  band No.  band energies     occupation 
      1       1.2198      2.00000
      2       3.5234      2.00000
      3       3.5234      2.00000
      4       3.5234      2.00000
      5       5.8594      2.00000
      6       5.8594      2.00000
      7       5.8594      2.00000
      8       8.1021      2.00000
      9      17.0578      0.00000
     10      17.0578      0.00000
     11      17.0578      0.00000
     12      18.4859      0.00000
     13      18.4859      0.00000
     14      18.4859      0.00000
     15      20.3896      0.00000
     16      20.3896      0.00000
     17      20.3896      0.00000
     18      20.5047      0.00000
     19      20.5047      0.00000
     20      22.6157      0.00000
     21      22.6157      0.00000
     22      24.2823      0.00000
     23      24.6637      0.00000
     24      24.6637      0.00000

 k-point   157 :       0.4375    0.3750    0.3750
  band No.  band energies     occupation 
      1       1.6932      2.00000
      2       2.8479      2.00000
      3       3.9683      2.00000
      4       3.9683      2.00000
      5       5.2081      2.00000
      6       5.2081      2.00000
      7       6.3130      2.00000
      8       7.4371      2.00000
      9      17.4476      0.00000
     10      17.4476      0.00000
     11      18.4653      0.00000
     12      18.4653      0.00000
     13      18.4952      0.00000
     14      18.8966      0.00000
     15      19.9071      0.00000
     16      20.7349      0.00000
     17      20.8358      0.00000
     18      21.2382      0.00000
     19      21.2382      0.00000
     20      21.5606      0.00000
     21      23.0292      0.00000
     22      23.7492      0.00000
     23      23.7492      0.00000
     24      24.0545      0.00000

 k-point   158 :       0.5000    0.3750    0.3750
  band No.  band energies     occupation 
      1       2.2365      2.00000
      2       2.2365      2.00000
      3       4.3156      2.00000
      4       4.3156      2.00000
      5       4.7918      2.00000
      6       4.7918      2.00000
      7       6.8400      2.00000
      8       6.8400      2.00000
      9      17.6989      0.00000
     10      17.6989      0.00000
     11      18.2510      0.00000
     12      18.2510      0.00000
     13      19.3704      0.00000
     14      19.3704      0.00000
     15      19.9033      0.00000
     16      19.9033      0.00000
     17      21.0551      0.00000
     18      21.0551      0.00000
     19      22.4564      0.00000
     20      22.4564      0.00000
     21      22.5463      0.00000
     22      22.5463      0.00000
     23      23.5090      0.00000
     24      23.5090      0.00000

 k-point   159 :       0.4375    0.4375    0.3750
  band No.  band energies     occupation 
      1       2.1643      2.00000
      2       3.3100      2.00000
      3       3.3100      2.00000
      4       4.2464      2.00000
      5       4.7194      2.00000
      6       5.6480      2.00000
      7       5.6480      2.00000
      8       6.7706      2.00000
      9      17.8932      0.00000
     10      18.6680      0.00000
     11      18.6680      0.00000
     12      19.0654      0.00000
     13      19.0654      0.00000
     14      19.3134      0.00000
     15      19.7373      0.00000
     16      21.1305      0.00000
     17      21.1673      0.00000
     18      21.5122      0.00000
     19      21.5122      0.00000
     20      21.6202      0.00000
     21      22.4804      0.00000
     22      23.1599      0.00000
     23      23.1599      0.00000
     24      23.4521      0.00000

 k-point   160 :       0.5000    0.4375    0.3750
  band No.  band energies     occupation 
      1       2.7044      2.00000
      2       2.7044      2.00000
      3       3.8275      2.00000
      4       3.8275      2.00000
      5       5.0655      2.00000
      6       5.0655      2.00000
      7       6.1730      2.00000
      8       6.1730      2.00000
      9      18.3316      0.00000
     10      18.3316      0.00000
     11      19.2511      0.00000
     12      19.2511      0.00000
     13      19.3402      0.00000
     14      19.3402      0.00000
     15      20.2928      0.00000
     16      20.2928      0.00000
     17      21.6628      0.00000
     18      21.6628      0.00000
     19      22.0068      0.00000
     20      22.0068      0.00000
     21      22.6113      0.00000
     22      22.6113      0.00000
     23      22.6726      0.00000
     24      22.6726      0.00000

 k-point   161 :       0.5000    0.5000    0.3750
  band No.  band energies     occupation 
      1       3.2387      2.00000
      2       3.2387      2.00000
      3       3.2387      2.00000
      4       3.2387      2.00000
      5       5.5774      2.00000
      6       5.5774      2.00000
      7       5.5774      2.00000
      8       5.5774      2.00000
      9      18.8092      0.00000
     10      18.8092      0.00000
     11      18.8092      0.00000
     12      18.8092      0.00000
     13      20.2597      0.00000
     14      20.2597      0.00000
     15      20.2597      0.00000
     16      20.2597      0.00000
     17      21.9225      0.00000
     18      21.9225      0.00000
     19      21.9225      0.00000
     20      21.9225      0.00000
     21      22.3723      0.00000
     22      22.3723      0.00000
     23      22.3723      0.00000
     24      22.3723      0.00000

 k-point   162 :       0.4375    0.4375    0.4375
  band No.  band energies     occupation 
      1       2.6325      2.00000
      2       3.7567      2.00000
      3       3.7567      2.00000
      4       3.7567      2.00000
      5       4.9945      2.00000
      6       4.9945      2.00000
      7       4.9945      2.00000
      8       6.1032      2.00000
      9      19.2783      0.00000
     10      19.2783      0.00000
     11      19.2783      0.00000
     12      19.7215      0.00000
     13      19.7215      0.00000
     14      19.7215      0.00000
     15      20.7037      0.00000
     16      20.7037      0.00000
     17      21.3761      0.00000
     18      21.3761      0.00000
     19      21.3761      0.00000
     20      21.8590      0.00000
     21      21.8590      0.00000
     22      22.8485      0.00000
     23      22.8485      0.00000
     24      22.8485      0.00000

 k-point   163 :       0.5000    0.4375    0.4375
  band No.  band energies     occupation 
      1       3.1672      2.00000
      2       3.1672      2.00000
      3       4.1081      2.00000
      4       4.1081      2.00000
      5       4.5740      2.00000
      6       4.5740      2.00000
      7       5.5071      2.00000
      8       5.5071      2.00000
      9      19.5441      0.00000
     10      19.5441      0.00000
     11      19.8213      0.00000
     12      19.8213      0.00000
     13      20.1889      0.00000
     14      20.1889      0.00000
     15      20.5527      0.00000
     16      20.5527      0.00000
     17      21.4095      0.00000
     18      21.4095      0.00000
     19      22.0596      0.00000
     20      22.0596      0.00000
     21      22.0785      0.00000
     22      22.0785      0.00000
     23      22.3134      0.00000
     24      22.3134      0.00000

 k-point   164 :       0.5000    0.5000    0.4375
  band No.  band energies     occupation 
      1       3.6860      2.00000
      2       3.6860      2.00000
      3       3.6860      2.00000
      4       3.6860      2.00000
      5       4.9231      2.00000
      6       4.9231      2.00000
      7       4.9231      2.00000
      8       4.9231      2.00000
      9      20.0746      0.00000
     10      20.0746      0.00000
     11      20.0746      0.00000
     12      20.0746      0.00000
     13      20.6418      0.00000
     14      20.6418      0.00000
     15      20.6418      0.00000
     16      20.6418      0.00000
     17      21.7984      0.00000
     18      21.7984      0.00000
     19      21.7984      0.00000
     20      21.7984      0.00000
     21      21.8282      0.00000
     22      21.8282      0.00000
     23      21.8282      0.00000
     24      21.8282      0.00000

 k-point   165 :       0.5000    0.5000    0.5000
  band No.  band energies     occupation 
      1       4.0389      2.00000
      2       4.0389      2.00000
      3       4.0389      2.00000
      4       4.0389      2.00000
      5       4.5011      2.00000
      6       4.5011      2.00000
      7       4.5011      2.00000
      8       4.5011      2.00000
      9      20.9162      0.00000
     10      20.9162      0.00000
     11      20.9162      0.00000
     12      20.9162      0.00000
     13      20.9162      0.00000
     14      20.9162      0.00000
     15      20.9162      0.00000
     16      20.9162      0.00000
     17      21.4599      0.00000
     18      21.4599      0.00000
     19      21.4599      0.00000
     20      21.4599      0.00000
     21      21.4599      0.00000
     22      21.4599      0.00000
     23      21.4599      0.00000
     24      21.4599      0.00000


--------------------------------------------------------------------------------------------------------


 soft charge-density along one line, spin component           1
         0         1         2         3         4         5         6         7         8         9
 total charge-density along one line
 
 pseudopotential strength for first ion, spin component:           1
  8.413  14.336  -0.000   0.000  -0.000  -0.000   0.000  -0.000
 14.336  24.430  -0.000   0.000  -0.000  -0.000   0.000  -0.000
 -0.000  -0.000   1.993  -0.000   0.000   5.737  -0.000   0.000
  0.000   0.000  -0.000   1.993   0.000  -0.000   5.737   0.000
 -0.000  -0.000   0.000   0.000   1.993   0.000   0.000   5.737
 -0.000  -0.000   5.737  -0.000   0.000  16.434  -0.000   0.000
  0.000   0.000  -0.000   5.737   0.000  -0.000  16.434   0.000
 -0.000  -0.000   0.000   0.000   5.737   0.000   0.000  16.434
 total augmentation occupancy for first ion, spin component:           1
  3.790  -1.016   0.000   0.000   0.000   0.000   0.000   0.000
 -1.016   0.336   0.000   0.000   0.000   0.000   0.000   0.000
  0.000   0.000   1.251   0.000   0.000  -0.085  -0.000  -0.000
  0.000   0.000   0.000   1.251   0.000   0.000  -0.085   0.000
  0.000   0.000  -0.000  -0.000   1.251  -0.000   0.000  -0.085
  0.000   0.000  -0.085   0.000  -0.000   0.006  -0.000  -0.000
  0.000   0.000  -0.000  -0.085   0.000  -0.000   0.006  -0.000
  0.000   0.000  -0.000   0.000  -0.085  -0.000   0.000   0.006


------------------------ aborting loop because EDIFF is reached ----------------------------------------


    CHARGE:  cpu time      0.0102: real time      0.0102
    FORLOC:  cpu time      0.0001: real time      0.0001
    FORNL :  cpu time      0.0230: real time      0.0231
    STRESS:  cpu time      0.2343: real time      0.2368
    FORCOR:  cpu time      0.0013: real time      0.0013
    FORHAR:  cpu time      0.0004: real time      0.0024
    MIXING:  cpu time      0.0003: real time      0.0003
    OFIELD:  cpu time      0.0000: real time      0.0000

  FORCE on cell =-STRESS in cart. coord.  units (eV):
  Direction    XX          YY          ZZ          XY          YZ          ZX
  --------------------------------------------------------------------------------------
  Alpha Z    -0.89404    -0.89404    -0.89404
  Ewald    -101.12332  -101.12332  -101.12332     0.00000     0.00000    -0.00000
  Hartree     0.16661     0.16661     0.16661    -0.00000    -0.00000    -0.00000
  E(xc)     -35.32816   -35.32816   -35.32816     0.00000     0.00000    -0.00000
  Local       2.91078     2.91078     2.91078    -0.00000     0.00000    -0.00000
  n-local    76.14517    77.13692    79.69472     0.50569     1.40573     0.58864
  augment    -3.91801    -3.91801    -3.91801    -0.00000     0.00000     0.00000
  Kinetic    60.78894    63.15525    67.60659     1.62626    -8.54374    -1.58532
  Fock        0.00000     0.00000     0.00000     0.00000     0.00000     0.00000
  -------------------------------------------------------------------------------------
  Total       3.32306     3.32306     3.32306     0.00000    -0.00000     0.00000
  in kB      88.57298    88.57298    88.57298     0.00000    -0.00000     0.00000
  external pressure =       88.57 kB  Pullay stress =        0.00 kB


 VOLUME and BASIS-vectors are now :
 -----------------------------------------------------------------------------
  energy-cutoff  :      400.00
  volume of cell :       60.11
      direct lattice vectors                 reciprocal lattice vectors
     3.917260774  0.000000000  0.000000000     0.255280426  0.000000000  0.000000000
     0.000000000  3.917260774  0.000000000     0.000000000  0.255280426  0.000000000
     0.000000000  0.000000000  3.917260774     0.000000000  0.000000000  0.255280426

  length of vectors
     3.917260774  3.917260774  3.917260774     0.255280426  0.255280426  0.255280426


 FORCES acting on ions
    electron-ion (+dipol)            ewald-force                    non-local-force                 convergence-correction
 -----------------------------------------------------------------------------------------------
   -.246E-14 -.607E-15 0.836E-14   -.188E-14 0.553E-16 -.274E-15   0.393E-24 0.380E-25 -.129E-24   0.365E-15 -.439E-15 0.192E-14
   -.357E-14 -.358E-14 -.241E-14   -.190E-14 0.260E-16 0.305E-15   0.267E-24 0.248E-24 -.362E-24   0.390E-15 0.447E-15 -.203E-14
   -.173E-14 -.168E-14 -.335E-13   0.197E-14 0.911E-17 0.319E-15   -.827E-25 0.154E-24 0.350E-24   -.268E-15 -.467E-15 -.203E-14
   -.301E-14 -.716E-14 0.243E-13   0.195E-14 -.201E-16 -.528E-15   0.731E-24 -.714E-25 0.532E-24   -.291E-15 0.483E-15 0.193E-14
 -----------------------------------------------------------------------------------------------
   -.108E-13 -.130E-13 -.325E-14   0.130E-15 0.702E-16 -.178E-15   0.131E-23 0.369E-24 0.391E-24   0.197E-15 0.238E-16 -.213E-15
 
 
 POSITION                                       TOTAL-FORCE (eV/Angst)
 -----------------------------------------------------------------------------------
      0.00000      0.00000      0.00000        -0.000000     -0.000000     -0.000000
      0.00000      1.95863      1.95863        -0.000000      0.000000     -0.000000
      1.95863      0.00000      1.95863         0.000000     -0.000000     -0.000000
      1.95863      1.95863      0.00000         0.000000      0.000000      0.000000
 -----------------------------------------------------------------------------------
    total drift:                               -0.000000     -0.000000     -0.000000


--------------------------------------------------------------------------------------------------------



  FREE ENERGIE OF THE ION-ELECTRON SYSTEM (eV)
  ---------------------------------------------------
  free  energy   TOTEN  =       -14.84142522 eV

  energy  without entropy=      -14.84009249  energy(sigma->0) =      -14.84075886
 


--------------------------------------------------------------------------------------------------------


    POTLOK:  cpu time      0.0023: real time      0.0024


--------------------------------------------------------------------------------------------------------




--------------------------------------------------------------------------------------------------------


  
 reached required accuracy - stopping structural energy minimisation
 writing wavefunctions
     LOOP+:  cpu time      7.6084: real time      7.7268
    4ORBIT:  cpu time      0.0000: real time      0.0000

 total amount of memory used by VASP MPI-rank0    45731. kBytes
=======================================================================

   base      :      30000. kBytes
   nonl-proj :      11983. kBytes
   fftplans  :        147. kBytes
   grid      :        485. kBytes
   one-center:         12. kBytes
   wavefun   :       3104. kBytes
 
  
  
 General timing and accounting informations for this job:
 ========================================================
  
                  Total CPU time used (sec):        8.273
                            User time (sec):        7.986
                          System time (sec):        0.287
                         Elapsed time (sec):        9.181
  
                   Maximum memory used (kb):      218124.
                   Average memory used (kb):          N/A
  
                          Minor page faults:        34257
                          Major page faults:         1662
                 Voluntary context switches:         2384
