       N       E                     dE             d eps       ncg     rms          rms(c)
DAV:   1     0.352530728543E+03    0.35253E+03   -0.28780E+04   384   0.106E+03
DAV:   2    -0.790417554653E+01   -0.36043E+03   -0.35574E+03   480   0.272E+02
DAV:   3    -0.200033162567E+02   -0.12099E+02   -0.12092E+02   456   0.549E+01
DAV:   4    -0.201288288502E+02   -0.12551E+00   -0.12551E+00   648   0.420E+00
DAV:   5    -0.201291922282E+02   -0.36338E-03   -0.36338E-03   480   0.198E-01    0.104E+01
DAV:   6    -0.192396896177E+02    0.88950E+00   -0.26197E+00   456   0.942E+00    0.842E+00
DAV:   7    -0.191823602574E+02    0.57329E-01   -0.78084E-01   432   0.297E+00    0.316E+00
DAV:   8    -0.191836076347E+02   -0.12474E-02   -0.56457E-02   432   0.176E+00    0.942E-01
DAV:   9    -0.191847244542E+02   -0.11168E-02   -0.64671E-03   528   0.524E-01    0.194E-01
DAV:  10    -0.191848259495E+02   -0.10150E-03   -0.83200E-04   480   0.175E-01    0.892E-02
DAV:  11    -0.191850222005E+02   -0.19625E-03   -0.50182E-04   408   0.113E-01    0.513E-02
DAV:  12    -0.191850156723E+02    0.65282E-05   -0.23313E-05   408   0.322E-02
   1 F= -.19185016E+02 E0= -.19185016E+02  d E =-.831516E-16
