       N       E                     dE             d eps       ncg     rms          rms(c)
DAV:   1     0.333536008322E+03    0.33354E+03   -0.26744E+04   960   0.958E+02
DAV:   2    -0.858791164230E+01   -0.34212E+03   -0.33859E+03  1200   0.258E+02
DAV:   3    -0.200467522094E+02   -0.11459E+02   -0.11452E+02  1128   0.530E+01
DAV:   4    -0.201706934946E+02   -0.12394E+00   -0.12394E+00  1608   0.401E+00
DAV:   5    -0.201710620535E+02   -0.36856E-03   -0.36856E-03  1176   0.187E-01    0.946E+00
DAV:   6    -0.192587352587E+02    0.91233E+00   -0.27541E+00  1032   0.883E+00    0.779E+00
DAV:   7    -0.192026296769E+02    0.56106E-01   -0.76266E-01  1104   0.277E+00    0.311E+00
DAV:   8    -0.192040464422E+02   -0.14168E-02   -0.46354E-02  1080   0.154E+00    0.885E-01
DAV:   9    -0.192052313575E+02   -0.11849E-02   -0.55929E-03  1200   0.462E-01    0.185E-01
DAV:  10    -0.192053524855E+02   -0.12113E-03   -0.82052E-04  1248   0.159E-01    0.902E-02
DAV:  11    -0.192055745584E+02   -0.22207E-03   -0.63880E-04  1272   0.115E-01    0.594E-02
DAV:  12    -0.192055661805E+02    0.83780E-05   -0.29136E-05  1200   0.320E-02
   1 F= -.19205566E+02 E0= -.19205566E+02  d E =-.192056E+02
