       N       E                     dE             d eps       ncg     rms          rms(c)
DAV:   1     0.338112832709E+03    0.33811E+03   -0.26754E+04   960   0.956E+02
DAV:   2    -0.791397402216E+01   -0.34603E+03   -0.34221E+03  1200   0.256E+02
DAV:   3    -0.198565364820E+02   -0.11943E+02   -0.11935E+02  1080   0.540E+01
DAV:   4    -0.200040309115E+02   -0.14749E+00   -0.14749E+00  1632   0.464E+00
DAV:   5    -0.200044122027E+02   -0.38129E-03   -0.38129E-03  1152   0.195E-01    0.848E+00
DAV:   6    -0.190487129786E+02    0.95570E+00   -0.30108E+00  1056   0.850E+00    0.712E+00
DAV:   7    -0.189927694728E+02    0.55944E-01   -0.71016E-01  1128   0.260E+00    0.303E+00
DAV:   8    -0.189948711805E+02   -0.21017E-02   -0.38925E-02  1104   0.141E+00    0.768E-01
DAV:   9    -0.189961653447E+02   -0.12942E-02   -0.57112E-03  1272   0.437E-01    0.138E-01
DAV:  10    -0.189963441734E+02   -0.17883E-03   -0.85100E-04  1080   0.157E-01    0.771E-02
DAV:  11    -0.189965763125E+02   -0.23214E-03   -0.52967E-04  1176   0.852E-02    0.581E-02
DAV:  12    -0.189965745252E+02    0.17873E-05   -0.11818E-05  1008   0.148E-02
   1 F= -.18996575E+02 E0= -.18996575E+02  d E =-.189966E+02
