       N       E                     dE             d eps       ncg     rms          rms(c)
DAV:   1    -0.798082354054E+01   -0.79808E+01   -0.38272E+03  7920   0.303E+02
DAV:   2    -0.149895954590E+02   -0.70088E+01   -0.69515E+01 11616   0.247E+01
DAV:   3    -0.150211589370E+02   -0.31563E-01   -0.31560E-01 10536   0.207E+00
DAV:   4    -0.150212132085E+02   -0.54271E-04   -0.54272E-04 13608   0.782E-02
DAV:   5    -0.150212132302E+02   -0.21652E-07   -0.21093E-07 10536   0.926E-04    0.243E+00
DAV:   6    -0.149710307789E+02    0.50182E-01   -0.77363E-03 11760   0.273E-01    0.141E+00
DAV:   7    -0.149344459829E+02    0.36585E-01   -0.21982E-02 10176   0.432E-01    0.253E-01
DAV:   8    -0.149343420944E+02    0.10389E-03   -0.78516E-05 13896   0.350E-02    0.168E-02
DAV:   9    -0.149343347012E+02    0.73932E-05   -0.39321E-06 10536   0.547E-03
   1 F= -.14934335E+02 E0= -.14933475E+02  d E =-.149343E+02
