 vasp.6.3.0 20Jan22 (build Feb 10 2022 15:15:41) complex                        
  
 executed on             LinuxIFC date 2023.09.09  16:13:02
 running on   24 total cores
 distrk:  each k-point on   24 cores,    1 groups
 distr:  one band on NCORE=   1 cores,   24 groups


--------------------------------------------------------------------------------------------------------


 INCAR:
   ENCUT = 400
   ISMEAR = 0
   SIGMA = 0.05
   IBRION = 2
   ISIF = 4
   NSW = 100
   EDIFF = 1E-05
   EDIFFG = -0.01

 POTCAR:    PAW_PBE Al 04Jan2001                  
 -----------------------------------------------------------------------------
|                                                                             |
|           W    W    AA    RRRRR   N    N  II  N    N   GGGG   !!!           |
|           W    W   A  A   R    R  NN   N  II  NN   N  G    G  !!!           |
|           W    W  A    A  R    R  N N  N  II  N N  N  G       !!!           |
|           W WW W  AAAAAA  RRRRR   N  N N  II  N  N N  G  GGG   !            |
|           WW  WW  A    A  R   R   N   NN  II  N   NN  G    G                |
|           W    W  A    A  R    R  N    N  II  N    N   GGGG   !!!           |
|                                                                             |
|     For optimal performance we recommend to set                             |
|       NCORE = 2 up to number-of-cores-per-socket                            |
|     NCORE specifies how many cores store one orbital (NPAR=cpu/NCORE).      |
|     This setting can greatly improve the performance of VASP for DFT.       |
|     The default, NCORE=1 might be grossly inefficient on modern             |
|     multi-core architectures or massively parallel machines. Do your        |
|     own testing! More info at https://www.vasp.at/wiki/index.php/NCORE      |
|     Unfortunately you need to use the default for GW and RPA                |
|     calculations (for HF NCORE is supported but not extensively tested      |
|     yet).                                                                   |
|                                                                             |
 -----------------------------------------------------------------------------

 POTCAR:    PAW_PBE Al 04Jan2001                  
   SHA256 =  17880443556af62b473fe41b62a467bd001ad55d2cabe504a3f22e34d4e9db96 Al/POTCAR             
   COPYR  = (c) Copyright 04Jan2001 Georg Kresse                                                    
   COPYR  = This file is part of the software VASP. Any use, copying, and all other rights are regul
   COPYR  = If you do not have a valid VASP license, you may not use, copy or distribute this file. 
   VRHFIN =Al: s2p1                                                                                 
   LEXCH  = PE                                                                                      
   EATOM  =    53.5387 eV,    3.9350 Ry                                                             
                                                                                                    
   TITEL  = PAW_PBE Al 04Jan2001                                                                    
   LULTRA =        F    use ultrasoft PP ?                                                          
   IUNSCR =        1    unscreen: 0-lin 1-nonlin 2-no                                               
   RPACOR =    1.500    partial core radius                                                         
   POMASS =   26.981; ZVAL   =    3.000    mass and valenz                                          
   RCORE  =    1.900    outmost cutoff radius                                                       
   RWIGS  =    2.650; RWIGS  =    1.402    wigner-seitz radius (au A)                               
   ENMAX  =  240.300; ENMIN  =  180.225 eV                                                          
   ICORE  =        2    local potential                                                             
   LCOR   =        T    correct aug charges                                                         
   LPAW   =        T    paw PP                                                                      
   EAUG   =  291.052                                                                                
   DEXC   =    0.000                                                                                
   RMAX   =    1.939    core radius for proj-oper                                                   
   RAUG   =    1.300    factor for augmentation sphere                                              
   RDEP   =    1.966    radius for radial grids                                                     
   RDEPT  =    1.856    core radius for aug-charge                                                  
                                                                                                    
   Atomic configuration                                                                             
    6 entries                                                                                       
     n  l   j            E        occ.                                                              
     1  0  0.50     -1511.1048   2.0000                                                             
     2  0  0.50      -108.1629   2.0000                                                             
     2  1  1.50       -69.6402   6.0000                                                             
     3  0  0.50        -7.7528   2.0000                                                             
     3  1  1.50        -2.7121   1.0000                                                             
     3  2  2.50        -2.7212   0.0000                                                             
   Description                                                                                      
     l       E           TYP  RCUT    TYP  RCUT                                                     
     0     -7.7528455     23  1.900                                                                 
     0     -3.3096929     23  1.900                                                                 
     1     -2.7120682     23  1.900                                                                 
     1     13.6058260     23  1.900                                                                 
     2     -2.7211652      7  1.900                                                                 
  local pseudopotential read in
  partial core-charges read in
  partial kinetic energy density read in
  atomic valenz-charges read in
  non local Contribution for L=           0  read in
    real space projection operators read in
  non local Contribution for L=           0  read in
    real space projection operators read in
  non local Contribution for L=           1  read in
    real space projection operators read in
  non local Contribution for L=           1  read in
    real space projection operators read in
    PAW grid and wavefunctions read in
 
   number of l-projection  operators is LMAX  =           4
   number of lm-projection operators is LMMAX =           8
 
  PAW_PBE Al 04Jan2001                  :
 energy of atom  1       EATOM=  -53.5387
 kinetic energy error for atom=    0.0005 (will be added to EATOM!!)
 
 
 POSCAR: Al4
  positions in direct lattice
  No initial velocities read in
 exchange correlation table for  LEXCH =        8
   RHO(1)=    0.500       N(1)  =     2000
   RHO(2)=  100.500       N(2)  =     4000
 


--------------------------------------------------------------------------------------------------------


 ion  position               nearest neighbor table
   1  0.000  0.000  0.000-   2 2.91   3 2.91   4 2.91   2 2.91   3 2.91   2 2.91   4 2.91   2 2.91
                             3 2.91   4 2.91   3 2.91   4 2.91
   2  0.000  0.500  0.500-   1 2.91   3 2.91   4 2.91   1 2.91   4 2.91   1 2.91   3 2.91   1 2.91
                             3 2.91   4 2.91   4 2.91   3 2.91
   3  0.500  0.000  0.500-   1 2.91   2 2.91   4 2.91   1 2.91   4 2.91   2 2.91   4 2.91   4 2.91
                             1 2.91   2 2.91   1 2.91   2 2.91
   4  0.500  0.500  0.000-   1 2.91   2 2.91   3 2.91   2 2.91   3 2.91   1 2.91   3 2.91   3 2.91
                             1 2.91   2 2.91   2 2.91   1 2.91
 
  LATTYP: Found a simple cubic cell.
 ALAT       =     4.1191814324
  
  Lattice vectors:
  
 A1 = (   4.1191814324,   0.0000000000,   0.0000000000)
 A2 = (   0.0000000000,   4.1191814324,   0.0000000000)
 A3 = (   0.0000000000,   0.0000000000,   4.1191814324)


Analysis of symmetry for initial positions (statically):
=====================================================================
 Subroutine PRICEL returns following result:
 
  LATTYP: Found a face centered cubic cell.
 ALAT       =     4.1191814324
  
  Lattice vectors:
  
 A1 = (   2.0595907162,  -2.0595907162,   0.0000000000)
 A2 = (   2.0595907162,   0.0000000000,   2.0595907162)
 A3 = (   0.0000000000,  -2.0595907162,   2.0595907162)
 
   4 primitive cells build up your supercell.
 

 Routine SETGRP: Setting up the symmetry group for a 
 simple cubic supercell.


 Subroutine GETGRP returns: Found 48 space group operations
 (whereof 48 operations were pure point group operations)
 out of a pool of 48 trial point group operations.


The static configuration has the point symmetry O_h .


Analysis of symmetry for dynamics (positions and initial velocities):
=====================================================================
 Subroutine PRICEL returns following result:
 
  LATTYP: Found a face centered cubic cell.
 ALAT       =     4.1191814324
  
  Lattice vectors:
  
 A1 = (   2.0595907162,  -2.0595907162,   0.0000000000)
 A2 = (   2.0595907162,   0.0000000000,   2.0595907162)
 A3 = (   0.0000000000,  -2.0595907162,   2.0595907162)
 
   4 primitive cells build up your supercell.
 

 Routine SETGRP: Setting up the symmetry group for a 
 simple cubic supercell.


 Subroutine GETGRP returns: Found 48 space group operations
 (whereof 48 operations were pure point group operations)
 out of a pool of 48 trial point group operations.


The dynamic configuration has the point symmetry O_h .


 Subroutine INISYM returns: Found 48 space group operations
 (whereof 48 operations are pure point group operations),
 and found     4 'primitive' translations


----------------------------------------------------------------------------------------

                                     Primitive cell                                     

  volume of cell :      17.4732

  direct lattice vectors                    reciprocal lattice vectors
     2.059590716 -2.059590716  0.000000000     0.242766680 -0.242766680 -0.242766680
     2.059590716  0.000000000  2.059590716     0.242766680  0.242766680  0.242766680
     0.000000000 -2.059590716  2.059590716    -0.242766680 -0.242766680  0.242766680

  length of vectors
     2.912701124  2.912701124  2.912701124     0.420484224  0.420484224  0.420484224

  position of ions in fractional coordinates (direct lattice)
     0.000000000  0.000000000  0.000000000

  ion indices of the primitive-cell ions
   primitive index   ion index
                 1           1

----------------------------------------------------------------------------------------

 
 
 KPOINTS: k-points                                

Automatic generation of k-mesh.
 Grid dimensions read from file:
 generate k-points for:   16   16   16

 Generating k-lattice:

  Cartesian coordinates                     Fractional coordinates (reciprocal lattice)
     0.015172917  0.000000000  0.000000000     0.062500000  0.000000000  0.000000000
     0.000000000  0.015172917  0.000000000     0.000000000  0.062500000  0.000000000
     0.000000000  0.000000000  0.015172917     0.000000000  0.000000000  0.062500000

  Length of vectors
     0.015172917  0.015172917  0.015172917

  Shift w.r.t. Gamma in fractional coordinates (k-lattice)
     0.000000000  0.000000000  0.000000000

 
 Subroutine IBZKPT returns following result:
 ===========================================
 
 Found    165 irreducible k-points:
 
 Following reciprocal coordinates:
            Coordinates               Weight
  0.000000  0.000000  0.000000      1.000000
  0.062500  0.000000  0.000000      6.000000
  0.125000  0.000000  0.000000      6.000000
  0.187500  0.000000  0.000000      6.000000
  0.250000  0.000000  0.000000      6.000000
  0.312500  0.000000  0.000000      6.000000
  0.375000  0.000000  0.000000      6.000000
  0.437500  0.000000  0.000000      6.000000
  0.500000  0.000000  0.000000      3.000000
  0.062500  0.062500  0.000000     12.000000
  0.125000  0.062500  0.000000     24.000000
  0.187500  0.062500  0.000000     24.000000
  0.250000  0.062500  0.000000     24.000000
  0.312500  0.062500  0.000000     24.000000
  0.375000  0.062500  0.000000     24.000000
  0.437500  0.062500  0.000000     24.000000
  0.500000  0.062500  0.000000     12.000000
  0.125000  0.125000  0.000000     12.000000
  0.187500  0.125000  0.000000     24.000000
  0.250000  0.125000  0.000000     24.000000
  0.312500  0.125000  0.000000     24.000000
  0.375000  0.125000  0.000000     24.000000
  0.437500  0.125000  0.000000     24.000000
  0.500000  0.125000  0.000000     12.000000
  0.187500  0.187500  0.000000     12.000000
  0.250000  0.187500  0.000000     24.000000
  0.312500  0.187500  0.000000     24.000000
  0.375000  0.187500  0.000000     24.000000
  0.437500  0.187500  0.000000     24.000000
  0.500000  0.187500  0.000000     12.000000
  0.250000  0.250000  0.000000     12.000000
  0.312500  0.250000  0.000000     24.000000
  0.375000  0.250000  0.000000     24.000000
  0.437500  0.250000  0.000000     24.000000
  0.500000  0.250000  0.000000     12.000000
  0.312500  0.312500  0.000000     12.000000
  0.375000  0.312500  0.000000     24.000000
  0.437500  0.312500  0.000000     24.000000
  0.500000  0.312500  0.000000     12.000000
  0.375000  0.375000  0.000000     12.000000
  0.437500  0.375000  0.000000     24.000000
  0.500000  0.375000  0.000000     12.000000
  0.437500  0.437500  0.000000     12.000000
  0.500000  0.437500  0.000000     12.000000
  0.500000  0.500000  0.000000      3.000000
  0.062500  0.062500  0.062500      8.000000
  0.125000  0.062500  0.062500     24.000000
  0.187500  0.062500  0.062500     24.000000
  0.250000  0.062500  0.062500     24.000000
  0.312500  0.062500  0.062500     24.000000
  0.375000  0.062500  0.062500     24.000000
  0.437500  0.062500  0.062500     24.000000
  0.500000  0.062500  0.062500     12.000000
  0.125000  0.125000  0.062500     24.000000
  0.187500  0.125000  0.062500     48.000000
  0.250000  0.125000  0.062500     48.000000
  0.312500  0.125000  0.062500     48.000000
  0.375000  0.125000  0.062500     48.000000
  0.437500  0.125000  0.062500     48.000000
  0.500000  0.125000  0.062500     24.000000
  0.187500  0.187500  0.062500     24.000000
  0.250000  0.187500  0.062500     48.000000
  0.312500  0.187500  0.062500     48.000000
  0.375000  0.187500  0.062500     48.000000
  0.437500  0.187500  0.062500     48.000000
  0.500000  0.187500  0.062500     24.000000
  0.250000  0.250000  0.062500     24.000000
  0.312500  0.250000  0.062500     48.000000
  0.375000  0.250000  0.062500     48.000000
  0.437500  0.250000  0.062500     48.000000
  0.500000  0.250000  0.062500     24.000000
  0.312500  0.312500  0.062500     24.000000
  0.375000  0.312500  0.062500     48.000000
  0.437500  0.312500  0.062500     48.000000
  0.500000  0.312500  0.062500     24.000000
  0.375000  0.375000  0.062500     24.000000
  0.437500  0.375000  0.062500     48.000000
  0.500000  0.375000  0.062500     24.000000
  0.437500  0.437500  0.062500     24.000000
  0.500000  0.437500  0.062500     24.000000
  0.500000  0.500000  0.062500      6.000000
  0.125000  0.125000  0.125000      8.000000
  0.187500  0.125000  0.125000     24.000000
  0.250000  0.125000  0.125000     24.000000
  0.312500  0.125000  0.125000     24.000000
  0.375000  0.125000  0.125000     24.000000
  0.437500  0.125000  0.125000     24.000000
  0.500000  0.125000  0.125000     12.000000
  0.187500  0.187500  0.125000     24.000000
  0.250000  0.187500  0.125000     48.000000
  0.312500  0.187500  0.125000     48.000000
  0.375000  0.187500  0.125000     48.000000
  0.437500  0.187500  0.125000     48.000000
  0.500000  0.187500  0.125000     24.000000
  0.250000  0.250000  0.125000     24.000000
  0.312500  0.250000  0.125000     48.000000
  0.375000  0.250000  0.125000     48.000000
  0.437500  0.250000  0.125000     48.000000
  0.500000  0.250000  0.125000     24.000000
  0.312500  0.312500  0.125000     24.000000
  0.375000  0.312500  0.125000     48.000000
  0.437500  0.312500  0.125000     48.000000
  0.500000  0.312500  0.125000     24.000000
  0.375000  0.375000  0.125000     24.000000
  0.437500  0.375000  0.125000     48.000000
  0.500000  0.375000  0.125000     24.000000
  0.437500  0.437500  0.125000     24.000000
  0.500000  0.437500  0.125000     24.000000
  0.500000  0.500000  0.125000      6.000000
  0.187500  0.187500  0.187500      8.000000
  0.250000  0.187500  0.187500     24.000000
  0.312500  0.187500  0.187500     24.000000
  0.375000  0.187500  0.187500     24.000000
  0.437500  0.187500  0.187500     24.000000
  0.500000  0.187500  0.187500     12.000000
  0.250000  0.250000  0.187500     24.000000
  0.312500  0.250000  0.187500     48.000000
  0.375000  0.250000  0.187500     48.000000
  0.437500  0.250000  0.187500     48.000000
  0.500000  0.250000  0.187500     24.000000
  0.312500  0.312500  0.187500     24.000000
  0.375000  0.312500  0.187500     48.000000
  0.437500  0.312500  0.187500     48.000000
  0.500000  0.312500  0.187500     24.000000
  0.375000  0.375000  0.187500     24.000000
  0.437500  0.375000  0.187500     48.000000
  0.500000  0.375000  0.187500     24.000000
  0.437500  0.437500  0.187500     24.000000
  0.500000  0.437500  0.187500     24.000000
  0.500000  0.500000  0.187500      6.000000
  0.250000  0.250000  0.250000      8.000000
  0.312500  0.250000  0.250000     24.000000
  0.375000  0.250000  0.250000     24.000000
  0.437500  0.250000  0.250000     24.000000
  0.500000  0.250000  0.250000     12.000000
  0.312500  0.312500  0.250000     24.000000
  0.375000  0.312500  0.250000     48.000000
  0.437500  0.312500  0.250000     48.000000
  0.500000  0.312500  0.250000     24.000000
  0.375000  0.375000  0.250000     24.000000
  0.437500  0.375000  0.250000     48.000000
  0.500000  0.375000  0.250000     24.000000
  0.437500  0.437500  0.250000     24.000000
  0.500000  0.437500  0.250000     24.000000
  0.500000  0.500000  0.250000      6.000000
  0.312500  0.312500  0.312500      8.000000
  0.375000  0.312500  0.312500     24.000000
  0.437500  0.312500  0.312500     24.000000
  0.500000  0.312500  0.312500     12.000000
  0.375000  0.375000  0.312500     24.000000
  0.437500  0.375000  0.312500     48.000000
  0.500000  0.375000  0.312500     24.000000
  0.437500  0.437500  0.312500     24.000000
  0.500000  0.437500  0.312500     24.000000
  0.500000  0.500000  0.312500      6.000000
  0.375000  0.375000  0.375000      8.000000
  0.437500  0.375000  0.375000     24.000000
  0.500000  0.375000  0.375000     12.000000
  0.437500  0.437500  0.375000     24.000000
  0.500000  0.437500  0.375000     24.000000
  0.500000  0.500000  0.375000      6.000000
  0.437500  0.437500  0.437500      8.000000
  0.500000  0.437500  0.437500     12.000000
  0.500000  0.500000  0.437500      6.000000
  0.500000  0.500000  0.500000      1.000000
 
 Following cartesian coordinates:
            Coordinates               Weight
  0.000000  0.000000  0.000000      1.000000
  0.015476  0.000000  0.000000      6.000000
  0.030953  0.000000  0.000000      6.000000
  0.046429  0.000000  0.000000      6.000000
  0.061906  0.000000  0.000000      6.000000
  0.077382  0.000000  0.000000      6.000000
  0.092858  0.000000  0.000000      6.000000
  0.108335  0.000000  0.000000      6.000000
  0.123811  0.000000  0.000000      3.000000
  0.015476  0.015476  0.000000     12.000000
  0.030953  0.015476  0.000000     24.000000
  0.046429  0.015476  0.000000     24.000000
  0.061906  0.015476  0.000000     24.000000
  0.077382  0.015476  0.000000     24.000000
  0.092858  0.015476  0.000000     24.000000
  0.108335  0.015476  0.000000     24.000000
  0.123811  0.015476  0.000000     12.000000
  0.030953  0.030953  0.000000     12.000000
  0.046429  0.030953  0.000000     24.000000
  0.061906  0.030953  0.000000     24.000000
  0.077382  0.030953  0.000000     24.000000
  0.092858  0.030953  0.000000     24.000000
  0.108335  0.030953  0.000000     24.000000
  0.123811  0.030953  0.000000     12.000000
  0.046429  0.046429  0.000000     12.000000
  0.061906  0.046429  0.000000     24.000000
  0.077382  0.046429  0.000000     24.000000
  0.092858  0.046429  0.000000     24.000000
  0.108335  0.046429  0.000000     24.000000
  0.123811  0.046429  0.000000     12.000000
  0.061906  0.061906  0.000000     12.000000
  0.077382  0.061906  0.000000     24.000000
  0.092858  0.061906  0.000000     24.000000
  0.108335  0.061906  0.000000     24.000000
  0.123811  0.061906  0.000000     12.000000
  0.077382  0.077382  0.000000     12.000000
  0.092858  0.077382  0.000000     24.000000
  0.108335  0.077382  0.000000     24.000000
  0.123811  0.077382  0.000000     12.000000
  0.092858  0.092858  0.000000     12.000000
  0.108335  0.092858  0.000000     24.000000
  0.123811  0.092858  0.000000     12.000000
  0.108335  0.108335  0.000000     12.000000
  0.123811  0.108335  0.000000     12.000000
  0.123811  0.123811  0.000000      3.000000
  0.015476  0.015476  0.015476      8.000000
  0.030953  0.015476  0.015476     24.000000
  0.046429  0.015476  0.015476     24.000000
  0.061906  0.015476  0.015476     24.000000
  0.077382  0.015476  0.015476     24.000000
  0.092858  0.015476  0.015476     24.000000
  0.108335  0.015476  0.015476     24.000000
  0.123811  0.015476  0.015476     12.000000
  0.030953  0.030953  0.015476     24.000000
  0.046429  0.030953  0.015476     48.000000
  0.061906  0.030953  0.015476     48.000000
  0.077382  0.030953  0.015476     48.000000
  0.092858  0.030953  0.015476     48.000000
  0.108335  0.030953  0.015476     48.000000
  0.123811  0.030953  0.015476     24.000000
  0.046429  0.046429  0.015476     24.000000
  0.061906  0.046429  0.015476     48.000000
  0.077382  0.046429  0.015476     48.000000
  0.092858  0.046429  0.015476     48.000000
  0.108335  0.046429  0.015476     48.000000
  0.123811  0.046429  0.015476     24.000000
  0.061906  0.061906  0.015476     24.000000
  0.077382  0.061906  0.015476     48.000000
  0.092858  0.061906  0.015476     48.000000
  0.108335  0.061906  0.015476     48.000000
  0.123811  0.061906  0.015476     24.000000
  0.077382  0.077382  0.015476     24.000000
  0.092858  0.077382  0.015476     48.000000
  0.108335  0.077382  0.015476     48.000000
  0.123811  0.077382  0.015476     24.000000
  0.092858  0.092858  0.015476     24.000000
  0.108335  0.092858  0.015476     48.000000
  0.123811  0.092858  0.015476     24.000000
  0.108335  0.108335  0.015476     24.000000
  0.123811  0.108335  0.015476     24.000000
  0.123811  0.123811  0.015476      6.000000
  0.030953  0.030953  0.030953      8.000000
  0.046429  0.030953  0.030953     24.000000
  0.061906  0.030953  0.030953     24.000000
  0.077382  0.030953  0.030953     24.000000
  0.092858  0.030953  0.030953     24.000000
  0.108335  0.030953  0.030953     24.000000
  0.123811  0.030953  0.030953     12.000000
  0.046429  0.046429  0.030953     24.000000
  0.061906  0.046429  0.030953     48.000000
  0.077382  0.046429  0.030953     48.000000
  0.092858  0.046429  0.030953     48.000000
  0.108335  0.046429  0.030953     48.000000
  0.123811  0.046429  0.030953     24.000000
  0.061906  0.061906  0.030953     24.000000
  0.077382  0.061906  0.030953     48.000000
  0.092858  0.061906  0.030953     48.000000
  0.108335  0.061906  0.030953     48.000000
  0.123811  0.061906  0.030953     24.000000
  0.077382  0.077382  0.030953     24.000000
  0.092858  0.077382  0.030953     48.000000
  0.108335  0.077382  0.030953     48.000000
  0.123811  0.077382  0.030953     24.000000
  0.092858  0.092858  0.030953     24.000000
  0.108335  0.092858  0.030953     48.000000
  0.123811  0.092858  0.030953     24.000000
  0.108335  0.108335  0.030953     24.000000
  0.123811  0.108335  0.030953     24.000000
  0.123811  0.123811  0.030953      6.000000
  0.046429  0.046429  0.046429      8.000000
  0.061906  0.046429  0.046429     24.000000
  0.077382  0.046429  0.046429     24.000000
  0.092858  0.046429  0.046429     24.000000
  0.108335  0.046429  0.046429     24.000000
  0.123811  0.046429  0.046429     12.000000
  0.061906  0.061906  0.046429     24.000000
  0.077382  0.061906  0.046429     48.000000
  0.092858  0.061906  0.046429     48.000000
  0.108335  0.061906  0.046429     48.000000
  0.123811  0.061906  0.046429     24.000000
  0.077382  0.077382  0.046429     24.000000
  0.092858  0.077382  0.046429     48.000000
  0.108335  0.077382  0.046429     48.000000
  0.123811  0.077382  0.046429     24.000000
  0.092858  0.092858  0.046429     24.000000
  0.108335  0.092858  0.046429     48.000000
  0.123811  0.092858  0.046429     24.000000
  0.108335  0.108335  0.046429     24.000000
  0.123811  0.108335  0.046429     24.000000
  0.123811  0.123811  0.046429      6.000000
  0.061906  0.061906  0.061906      8.000000
  0.077382  0.061906  0.061906     24.000000
  0.092858  0.061906  0.061906     24.000000
  0.108335  0.061906  0.061906     24.000000
  0.123811  0.061906  0.061906     12.000000
  0.077382  0.077382  0.061906     24.000000
  0.092858  0.077382  0.061906     48.000000
  0.108335  0.077382  0.061906     48.000000
  0.123811  0.077382  0.061906     24.000000
  0.092858  0.092858  0.061906     24.000000
  0.108335  0.092858  0.061906     48.000000
  0.123811  0.092858  0.061906     24.000000
  0.108335  0.108335  0.061906     24.000000
  0.123811  0.108335  0.061906     24.000000
  0.123811  0.123811  0.061906      6.000000
  0.077382  0.077382  0.077382      8.000000
  0.092858  0.077382  0.077382     24.000000
  0.108335  0.077382  0.077382     24.000000
  0.123811  0.077382  0.077382     12.000000
  0.092858  0.092858  0.077382     24.000000
  0.108335  0.092858  0.077382     48.000000
  0.123811  0.092858  0.077382     24.000000
  0.108335  0.108335  0.077382     24.000000
  0.123811  0.108335  0.077382     24.000000
  0.123811  0.123811  0.077382      6.000000
  0.092858  0.092858  0.092858      8.000000
  0.108335  0.092858  0.092858     24.000000
  0.123811  0.092858  0.092858     12.000000
  0.108335  0.108335  0.092858     24.000000
  0.123811  0.108335  0.092858     24.000000
  0.123811  0.123811  0.092858      6.000000
  0.108335  0.108335  0.108335      8.000000
  0.123811  0.108335  0.108335     12.000000
  0.123811  0.123811  0.108335      6.000000
  0.123811  0.123811  0.123811      1.000000
 


--------------------------------------------------------------------------------------------------------




 Dimension of arrays:
   k-points           NKPTS =    165   k-points in BZ     NKDIM =    165   number of bands    NBANDS=     24
   number of dos      NEDOS =    301   number of ions     NIONS =      4
   non local maximal  LDIM  =      4   non local SUM 2l+1 LMDIM =      8
   total plane-waves  NPLWV =   8000
   max r-space proj   IRMAX =      1   max aug-charges    IRDMAX=   4654
   dimension x,y,z NGX =    20 NGY =   20 NGZ =   20
   dimension x,y,z NGXF=    40 NGYF=   40 NGZF=   40
   support grid    NGXF=    40 NGYF=   40 NGZF=   40
   ions per type =               4
   NGX,Y,Z   is equivalent  to a cutoff of   8.07,  8.07,  8.07 a.u.
   NGXF,Y,Z  is equivalent  to a cutoff of  16.14, 16.14, 16.14 a.u.

 SYSTEM =  unknown system                          
 POSCAR =  Al4                                     

 Startparameter for this run:
   NWRITE =      2    write-flag & timer
   PREC   = normal    normal or accurate (medium, high low for compatibility)
   ISTART =      0    job   : 0-new  1-cont  2-samecut
   ICHARG =      2    charge: 1-file 2-atom 10-const
   ISPIN  =      1    spin polarized calculation?
   LNONCOLLINEAR =      F non collinear calculations
   LSORBIT =      F    spin-orbit coupling
   INIWAV =      1    electr: 0-lowe 1-rand  2-diag
   LASPH  =      F    aspherical Exc in radial PAW
 Electronic Relaxation 1
   ENCUT  =  400.0 eV  29.40 Ry    5.42 a.u.   6.72  6.72  6.72*2*pi/ulx,y,z
   ENINI  =  400.0     initial cutoff
   ENAUG  =  291.1 eV  augmentation charge cutoff
   NELM   =     60;   NELMIN=  2; NELMDL= -5     # of ELM steps 
   EDIFF  = 0.1E-04   stopping-criterion for ELM
   LREAL  =      F    real-space projection
   NLSPLINE    = F    spline interpolate recip. space projectors
   LCOMPAT=      F    compatible to vasp.4.4
   GGA_COMPAT  = T    GGA compatible to vasp.4.4-vasp.4.6
   LMAXPAW     = -100 max onsite density
   LMAXMIX     =    2 max onsite mixed and CHGCAR
   VOSKOWN=      0    Vosko Wilk Nusair interpolation
   ROPT   =    0.00000
 Ionic relaxation
   EDIFFG = -.1E-01   stopping-criterion for IOM
   NSW    =    100    number of steps for IOM
   NBLOCK =      1;   KBLOCK =    100    inner block; outer block 
   IBRION =      2    ionic relax: 0-MD 1-quasi-New 2-CG
   NFREE  =      1    steps in history (QN), initial steepest desc. (CG)
   ISIF   =      4    stress and relaxation
   IWAVPR =     11    prediction:  0-non 1-charg 2-wave 3-comb
   ISYM   =      2    0-nonsym 1-usesym 2-fastsym
   LCORR  =      T    Harris-Foulkes like correction to forces

   POTIM  = 0.5000    time-step for ionic-motion
   TEIN   =    0.0    initial temperature
   TEBEG  =    0.0;   TEEND  =   0.0 temperature during run
   SMASS  =  -3.00    Nose mass-parameter (am)
   estimated Nose-frequenzy (Omega)   =  0.10E-29 period in steps = 0.13E+47 mass=  -0.388E-27a.u.
   SCALEE = 1.0000    scale energy and forces
   NPACO  =    256;   APACO  = 10.0  distance and # of slots for P.C.
   PSTRESS=    0.0 pullay stress

  Mass of Ions in am
   POMASS =  26.98
  Ionic Valenz
   ZVAL   =   3.00
  Atomic Wigner-Seitz radii
   RWIGS  =  -1.00
  virtual crystal weights 
   VCA    =   1.00
   NELECT =      12.0000    total number of electrons
   NUPDOWN=      -1.0000    fix difference up-down

 DOS related values:
   EMIN   =  10.00;   EMAX   =-10.00  energy-range for DOS
   EFERMI =   0.00
   ISMEAR =     0;   SIGMA  =   0.05  broadening in eV -4-tet -1-fermi 0-gaus

 Electronic relaxation 2 (details)
   IALGO  =     38    algorithm
   LDIAG  =      T    sub-space diagonalisation (order eigenvalues)
   LSUBROT=      F    optimize rotation matrix (better conditioning)
   TURBO    =      0    0=normal 1=particle mesh
   IRESTART =      0    0=no restart 2=restart with 2 vectors
   NREBOOT  =      0    no. of reboots
   NMIN     =      0    reboot dimension
   EREF     =   0.00    reference energy to select bands
   IMIX   =      4    mixing-type and parameters
     AMIX     =   0.40;   BMIX     =  1.00
     AMIX_MAG =   1.60;   BMIX_MAG =  1.00
     AMIN     =   0.10
     WC   =   100.;   INIMIX=   1;  MIXPRE=   1;  MAXMIX= -45

 Intra band minimization:
   WEIMIN = 0.0010     energy-eigenvalue tresh-hold
   EBREAK =  0.10E-06  absolut break condition
   DEPER  =   0.30     relativ break condition  

   TIME   =   0.40     timestep for ELM

  volume/ion in A,a.u.               =      17.47       117.92
  Fermi-wavevector in a.u.,A,eV,Ry     =   0.909894  1.719451 11.264370  0.827908
  Thomas-Fermi vector in A             =   2.033993
 
 Write flags
   LWAVE        =      T    write WAVECAR
   LDOWNSAMPLE  =      F    k-point downsampling of WAVECAR
   LCHARG       =      T    write CHGCAR
   LVTOT        =      F    write LOCPOT, total local potential
   LVHAR        =      F    write LOCPOT, Hartree potential only
   LELF         =      F    write electronic localiz. function (ELF)
   LORBIT       =      0    0 simple, 1 ext, 2 COOP (PROOUT), +10 PAW based schemes


 Dipole corrections
   LMONO  =      F    monopole corrections only (constant potential shift)
   LDIPOL =      F    correct potential (dipole corrections)
   IDIPOL =      0    1-x, 2-y, 3-z, 4-all directions 
   EPSILON=  1.0000000 bulk dielectric constant

 Exchange correlation treatment:
   GGA     =    --    GGA type
   LEXCH   =     8    internal setting for exchange type
   LIBXC   =     F    Libxc                    
   VOSKOWN =     0    Vosko Wilk Nusair interpolation
   LHFCALC =     F    Hartree Fock is set to
   LHFONE  =     F    Hartree Fock one center treatment
   AEXX    =    0.0000 exact exchange contribution

 Linear response parameters
   LEPSILON=     F    determine dielectric tensor
   LRPA    =     F    only Hartree local field effects (RPA)
   LNABLA  =     F    use nabla operator in PAW spheres
   LVEL    =     F    velocity operator in full k-point grid
   CSHIFT  =0.1000    complex shift for real part using Kramers Kronig
   OMEGAMAX=  -1.0    maximum frequency
   DEG_THRESHOLD= 0.2000000E-02 threshold for treating states as degnerate
   RTIME   =   -0.100 relaxation time in fs
  (WPLASMAI=    0.000 imaginary part of plasma frequency in eV, 0.658/RTIME)
   DFIELD  = 0.0000000 0.0000000 0.0000000 field for delta impulse in time
 
  Optional k-point grid parameters
   LKPOINTS_OPT  =     F    use optional k-point grid
   KPOINTS_OPT_MODE=     1    mode for optional k-point grid
 
 Orbital magnetization related:
   ORBITALMAG=     F  switch on orbital magnetization
   LCHIMAG   =     F  perturbation theory with respect to B field
   DQ        =  0.001000  dq finite difference perturbation B field
   LLRAUG    =     F  two centre corrections for induced B field



--------------------------------------------------------------------------------------------------------


 conjugate gradient relaxation of ions
 charge density and potential will be updated during run
 non-spin polarized calculation
 Variant of blocked Davidson
 Davidson routine will perform the subspace rotation
 perform sub-space diagonalisation
    after iterative eigenvector-optimisation
 modified Broyden-mixing scheme, WC =      100.0
 initial mixing is a Kerker type mixing with AMIX =  0.4000 and BMIX =      1.0000
 Hartree-type preconditioning will be used
 using additional bands           18
 reciprocal scheme for non local part
 use partial core corrections
 calculate Harris-corrections to forces 
   (improved forces if not selfconsistent)
 use gradient corrections 
 use of overlap-Matrix (Vanderbilt PP)
 Gauss-broadening in eV      SIGMA  =   0.05


--------------------------------------------------------------------------------------------------------


  energy-cutoff  :      400.00
  volume of cell :       69.89
      direct lattice vectors                 reciprocal lattice vectors
     4.119181432  0.000000000  0.000000000     0.242766680  0.000000000  0.000000000
     0.000000000  4.119181432  0.000000000     0.000000000  0.242766680  0.000000000
     0.000000000  0.000000000  4.119181432     0.000000000  0.000000000  0.242766680

  length of vectors
     4.119181432  4.119181432  4.119181432     0.242766680  0.242766680  0.242766680


 
 k-points in units of 2pi/SCALE and weight: k-points                                
   0.00000000  0.00000000  0.00000000       0.000
   0.01547638  0.00000000  0.00000000       0.001
   0.03095275  0.00000000  0.00000000       0.001
   0.04642913  0.00000000  0.00000000       0.001
   0.06190550  0.00000000  0.00000000       0.001
   0.07738188  0.00000000  0.00000000       0.001
   0.09285826  0.00000000  0.00000000       0.001
   0.10833463  0.00000000  0.00000000       0.001
   0.12381101  0.00000000  0.00000000       0.001
   0.01547638  0.01547638  0.00000000       0.003
   0.03095275  0.01547638  0.00000000       0.006
   0.04642913  0.01547638  0.00000000       0.006
   0.06190550  0.01547638  0.00000000       0.006
   0.07738188  0.01547638  0.00000000       0.006
   0.09285826  0.01547638  0.00000000       0.006
   0.10833463  0.01547638  0.00000000       0.006
   0.12381101  0.01547638  0.00000000       0.003
   0.03095275  0.03095275  0.00000000       0.003
   0.04642913  0.03095275  0.00000000       0.006
   0.06190550  0.03095275  0.00000000       0.006
   0.07738188  0.03095275  0.00000000       0.006
   0.09285826  0.03095275  0.00000000       0.006
   0.10833463  0.03095275  0.00000000       0.006
   0.12381101  0.03095275  0.00000000       0.003
   0.04642913  0.04642913  0.00000000       0.003
   0.06190550  0.04642913  0.00000000       0.006
   0.07738188  0.04642913  0.00000000       0.006
   0.09285826  0.04642913  0.00000000       0.006
   0.10833463  0.04642913  0.00000000       0.006
   0.12381101  0.04642913  0.00000000       0.003
   0.06190550  0.06190550  0.00000000       0.003
   0.07738188  0.06190550  0.00000000       0.006
   0.09285826  0.06190550  0.00000000       0.006
   0.10833463  0.06190550  0.00000000       0.006
   0.12381101  0.06190550  0.00000000       0.003
   0.07738188  0.07738188  0.00000000       0.003
   0.09285826  0.07738188  0.00000000       0.006
   0.10833463  0.07738188  0.00000000       0.006
   0.12381101  0.07738188  0.00000000       0.003
   0.09285826  0.09285826  0.00000000       0.003
   0.10833463  0.09285826  0.00000000       0.006
   0.12381101  0.09285826  0.00000000       0.003
   0.10833463  0.10833463  0.00000000       0.003
   0.12381101  0.10833463  0.00000000       0.003
   0.12381101  0.12381101  0.00000000       0.001
   0.01547638  0.01547638  0.01547638       0.002
   0.03095275  0.01547638  0.01547638       0.006
   0.04642913  0.01547638  0.01547638       0.006
   0.06190550  0.01547638  0.01547638       0.006
   0.07738188  0.01547638  0.01547638       0.006
   0.09285826  0.01547638  0.01547638       0.006
   0.10833463  0.01547638  0.01547638       0.006
   0.12381101  0.01547638  0.01547638       0.003
   0.03095275  0.03095275  0.01547638       0.006
   0.04642913  0.03095275  0.01547638       0.012
   0.06190550  0.03095275  0.01547638       0.012
   0.07738188  0.03095275  0.01547638       0.012
   0.09285826  0.03095275  0.01547638       0.012
   0.10833463  0.03095275  0.01547638       0.012
   0.12381101  0.03095275  0.01547638       0.006
   0.04642913  0.04642913  0.01547638       0.006
   0.06190550  0.04642913  0.01547638       0.012
   0.07738188  0.04642913  0.01547638       0.012
   0.09285826  0.04642913  0.01547638       0.012
   0.10833463  0.04642913  0.01547638       0.012
   0.12381101  0.04642913  0.01547638       0.006
   0.06190550  0.06190550  0.01547638       0.006
   0.07738188  0.06190550  0.01547638       0.012
   0.09285826  0.06190550  0.01547638       0.012
   0.10833463  0.06190550  0.01547638       0.012
   0.12381101  0.06190550  0.01547638       0.006
   0.07738188  0.07738188  0.01547638       0.006
   0.09285826  0.07738188  0.01547638       0.012
   0.10833463  0.07738188  0.01547638       0.012
   0.12381101  0.07738188  0.01547638       0.006
   0.09285826  0.09285826  0.01547638       0.006
   0.10833463  0.09285826  0.01547638       0.012
   0.12381101  0.09285826  0.01547638       0.006
   0.10833463  0.10833463  0.01547638       0.006
   0.12381101  0.10833463  0.01547638       0.006
   0.12381101  0.12381101  0.01547638       0.001
   0.03095275  0.03095275  0.03095275       0.002
   0.04642913  0.03095275  0.03095275       0.006
   0.06190550  0.03095275  0.03095275       0.006
   0.07738188  0.03095275  0.03095275       0.006
   0.09285826  0.03095275  0.03095275       0.006
   0.10833463  0.03095275  0.03095275       0.006
   0.12381101  0.03095275  0.03095275       0.003
   0.04642913  0.04642913  0.03095275       0.006
   0.06190550  0.04642913  0.03095275       0.012
   0.07738188  0.04642913  0.03095275       0.012
   0.09285826  0.04642913  0.03095275       0.012
   0.10833463  0.04642913  0.03095275       0.012
   0.12381101  0.04642913  0.03095275       0.006
   0.06190550  0.06190550  0.03095275       0.006
   0.07738188  0.06190550  0.03095275       0.012
   0.09285826  0.06190550  0.03095275       0.012
   0.10833463  0.06190550  0.03095275       0.012
   0.12381101  0.06190550  0.03095275       0.006
   0.07738188  0.07738188  0.03095275       0.006
   0.09285826  0.07738188  0.03095275       0.012
   0.10833463  0.07738188  0.03095275       0.012
   0.12381101  0.07738188  0.03095275       0.006
   0.09285826  0.09285826  0.03095275       0.006
   0.10833463  0.09285826  0.03095275       0.012
   0.12381101  0.09285826  0.03095275       0.006
   0.10833463  0.10833463  0.03095275       0.006
   0.12381101  0.10833463  0.03095275       0.006
   0.12381101  0.12381101  0.03095275       0.001
   0.04642913  0.04642913  0.04642913       0.002
   0.06190550  0.04642913  0.04642913       0.006
   0.07738188  0.04642913  0.04642913       0.006
   0.09285826  0.04642913  0.04642913       0.006
   0.10833463  0.04642913  0.04642913       0.006
   0.12381101  0.04642913  0.04642913       0.003
   0.06190550  0.06190550  0.04642913       0.006
   0.07738188  0.06190550  0.04642913       0.012
   0.09285826  0.06190550  0.04642913       0.012
   0.10833463  0.06190550  0.04642913       0.012
   0.12381101  0.06190550  0.04642913       0.006
   0.07738188  0.07738188  0.04642913       0.006
   0.09285826  0.07738188  0.04642913       0.012
   0.10833463  0.07738188  0.04642913       0.012
   0.12381101  0.07738188  0.04642913       0.006
   0.09285826  0.09285826  0.04642913       0.006
   0.10833463  0.09285826  0.04642913       0.012
   0.12381101  0.09285826  0.04642913       0.006
   0.10833463  0.10833463  0.04642913       0.006
   0.12381101  0.10833463  0.04642913       0.006
   0.12381101  0.12381101  0.04642913       0.001
   0.06190550  0.06190550  0.06190550       0.002
   0.07738188  0.06190550  0.06190550       0.006
   0.09285826  0.06190550  0.06190550       0.006
   0.10833463  0.06190550  0.06190550       0.006
   0.12381101  0.06190550  0.06190550       0.003
   0.07738188  0.07738188  0.06190550       0.006
   0.09285826  0.07738188  0.06190550       0.012
   0.10833463  0.07738188  0.06190550       0.012
   0.12381101  0.07738188  0.06190550       0.006
   0.09285826  0.09285826  0.06190550       0.006
   0.10833463  0.09285826  0.06190550       0.012
   0.12381101  0.09285826  0.06190550       0.006
   0.10833463  0.10833463  0.06190550       0.006
   0.12381101  0.10833463  0.06190550       0.006
   0.12381101  0.12381101  0.06190550       0.001
   0.07738188  0.07738188  0.07738188       0.002
   0.09285826  0.07738188  0.07738188       0.006
   0.10833463  0.07738188  0.07738188       0.006
   0.12381101  0.07738188  0.07738188       0.003
   0.09285826  0.09285826  0.07738188       0.006
   0.10833463  0.09285826  0.07738188       0.012
   0.12381101  0.09285826  0.07738188       0.006
   0.10833463  0.10833463  0.07738188       0.006
   0.12381101  0.10833463  0.07738188       0.006
   0.12381101  0.12381101  0.07738188       0.001
   0.09285826  0.09285826  0.09285826       0.002
   0.10833463  0.09285826  0.09285826       0.006
   0.12381101  0.09285826  0.09285826       0.003
   0.10833463  0.10833463  0.09285826       0.006
   0.12381101  0.10833463  0.09285826       0.006
   0.12381101  0.12381101  0.09285826       0.001
   0.10833463  0.10833463  0.10833463       0.002
   0.12381101  0.10833463  0.10833463       0.003
   0.12381101  0.12381101  0.10833463       0.001
   0.12381101  0.12381101  0.12381101       0.000
 
 k-points in reciprocal lattice and weights: k-points                                
   0.00000000  0.00000000  0.00000000       0.000
   0.06250000  0.00000000  0.00000000       0.001
   0.12500000  0.00000000  0.00000000       0.001
   0.18750000  0.00000000  0.00000000       0.001
   0.25000000  0.00000000  0.00000000       0.001
   0.31250000  0.00000000  0.00000000       0.001
   0.37500000  0.00000000  0.00000000       0.001
   0.43750000  0.00000000  0.00000000       0.001
   0.50000000  0.00000000  0.00000000       0.001
   0.06250000  0.06250000  0.00000000       0.003
   0.12500000  0.06250000  0.00000000       0.006
   0.18750000  0.06250000  0.00000000       0.006
   0.25000000  0.06250000  0.00000000       0.006
   0.31250000  0.06250000  0.00000000       0.006
   0.37500000  0.06250000  0.00000000       0.006
   0.43750000  0.06250000  0.00000000       0.006
   0.50000000  0.06250000  0.00000000       0.003
   0.12500000  0.12500000  0.00000000       0.003
   0.18750000  0.12500000  0.00000000       0.006
   0.25000000  0.12500000  0.00000000       0.006
   0.31250000  0.12500000  0.00000000       0.006
   0.37500000  0.12500000  0.00000000       0.006
   0.43750000  0.12500000  0.00000000       0.006
   0.50000000  0.12500000  0.00000000       0.003
   0.18750000  0.18750000  0.00000000       0.003
   0.25000000  0.18750000  0.00000000       0.006
   0.31250000  0.18750000  0.00000000       0.006
   0.37500000  0.18750000  0.00000000       0.006
   0.43750000  0.18750000  0.00000000       0.006
   0.50000000  0.18750000  0.00000000       0.003
   0.25000000  0.25000000  0.00000000       0.003
   0.31250000  0.25000000  0.00000000       0.006
   0.37500000  0.25000000  0.00000000       0.006
   0.43750000  0.25000000  0.00000000       0.006
   0.50000000  0.25000000  0.00000000       0.003
   0.31250000  0.31250000  0.00000000       0.003
   0.37500000  0.31250000  0.00000000       0.006
   0.43750000  0.31250000  0.00000000       0.006
   0.50000000  0.31250000  0.00000000       0.003
   0.37500000  0.37500000  0.00000000       0.003
   0.43750000  0.37500000  0.00000000       0.006
   0.50000000  0.37500000  0.00000000       0.003
   0.43750000  0.43750000  0.00000000       0.003
   0.50000000  0.43750000  0.00000000       0.003
   0.50000000  0.50000000  0.00000000       0.001
   0.06250000  0.06250000  0.06250000       0.002
   0.12500000  0.06250000  0.06250000       0.006
   0.18750000  0.06250000  0.06250000       0.006
   0.25000000  0.06250000  0.06250000       0.006
   0.31250000  0.06250000  0.06250000       0.006
   0.37500000  0.06250000  0.06250000       0.006
   0.43750000  0.06250000  0.06250000       0.006
   0.50000000  0.06250000  0.06250000       0.003
   0.12500000  0.12500000  0.06250000       0.006
   0.18750000  0.12500000  0.06250000       0.012
   0.25000000  0.12500000  0.06250000       0.012
   0.31250000  0.12500000  0.06250000       0.012
   0.37500000  0.12500000  0.06250000       0.012
   0.43750000  0.12500000  0.06250000       0.012
   0.50000000  0.12500000  0.06250000       0.006
   0.18750000  0.18750000  0.06250000       0.006
   0.25000000  0.18750000  0.06250000       0.012
   0.31250000  0.18750000  0.06250000       0.012
   0.37500000  0.18750000  0.06250000       0.012
   0.43750000  0.18750000  0.06250000       0.012
   0.50000000  0.18750000  0.06250000       0.006
   0.25000000  0.25000000  0.06250000       0.006
   0.31250000  0.25000000  0.06250000       0.012
   0.37500000  0.25000000  0.06250000       0.012
   0.43750000  0.25000000  0.06250000       0.012
   0.50000000  0.25000000  0.06250000       0.006
   0.31250000  0.31250000  0.06250000       0.006
   0.37500000  0.31250000  0.06250000       0.012
   0.43750000  0.31250000  0.06250000       0.012
   0.50000000  0.31250000  0.06250000       0.006
   0.37500000  0.37500000  0.06250000       0.006
   0.43750000  0.37500000  0.06250000       0.012
   0.50000000  0.37500000  0.06250000       0.006
   0.43750000  0.43750000  0.06250000       0.006
   0.50000000  0.43750000  0.06250000       0.006
   0.50000000  0.50000000  0.06250000       0.001
   0.12500000  0.12500000  0.12500000       0.002
   0.18750000  0.12500000  0.12500000       0.006
   0.25000000  0.12500000  0.12500000       0.006
   0.31250000  0.12500000  0.12500000       0.006
   0.37500000  0.12500000  0.12500000       0.006
   0.43750000  0.12500000  0.12500000       0.006
   0.50000000  0.12500000  0.12500000       0.003
   0.18750000  0.18750000  0.12500000       0.006
   0.25000000  0.18750000  0.12500000       0.012
   0.31250000  0.18750000  0.12500000       0.012
   0.37500000  0.18750000  0.12500000       0.012
   0.43750000  0.18750000  0.12500000       0.012
   0.50000000  0.18750000  0.12500000       0.006
   0.25000000  0.25000000  0.12500000       0.006
   0.31250000  0.25000000  0.12500000       0.012
   0.37500000  0.25000000  0.12500000       0.012
   0.43750000  0.25000000  0.12500000       0.012
   0.50000000  0.25000000  0.12500000       0.006
   0.31250000  0.31250000  0.12500000       0.006
   0.37500000  0.31250000  0.12500000       0.012
   0.43750000  0.31250000  0.12500000       0.012
   0.50000000  0.31250000  0.12500000       0.006
   0.37500000  0.37500000  0.12500000       0.006
   0.43750000  0.37500000  0.12500000       0.012
   0.50000000  0.37500000  0.12500000       0.006
   0.43750000  0.43750000  0.12500000       0.006
   0.50000000  0.43750000  0.12500000       0.006
   0.50000000  0.50000000  0.12500000       0.001
   0.18750000  0.18750000  0.18750000       0.002
   0.25000000  0.18750000  0.18750000       0.006
   0.31250000  0.18750000  0.18750000       0.006
   0.37500000  0.18750000  0.18750000       0.006
   0.43750000  0.18750000  0.18750000       0.006
   0.50000000  0.18750000  0.18750000       0.003
   0.25000000  0.25000000  0.18750000       0.006
   0.31250000  0.25000000  0.18750000       0.012
   0.37500000  0.25000000  0.18750000       0.012
   0.43750000  0.25000000  0.18750000       0.012
   0.50000000  0.25000000  0.18750000       0.006
   0.31250000  0.31250000  0.18750000       0.006
   0.37500000  0.31250000  0.18750000       0.012
   0.43750000  0.31250000  0.18750000       0.012
   0.50000000  0.31250000  0.18750000       0.006
   0.37500000  0.37500000  0.18750000       0.006
   0.43750000  0.37500000  0.18750000       0.012
   0.50000000  0.37500000  0.18750000       0.006
   0.43750000  0.43750000  0.18750000       0.006
   0.50000000  0.43750000  0.18750000       0.006
   0.50000000  0.50000000  0.18750000       0.001
   0.25000000  0.25000000  0.25000000       0.002
   0.31250000  0.25000000  0.25000000       0.006
   0.37500000  0.25000000  0.25000000       0.006
   0.43750000  0.25000000  0.25000000       0.006
   0.50000000  0.25000000  0.25000000       0.003
   0.31250000  0.31250000  0.25000000       0.006
   0.37500000  0.31250000  0.25000000       0.012
   0.43750000  0.31250000  0.25000000       0.012
   0.50000000  0.31250000  0.25000000       0.006
   0.37500000  0.37500000  0.25000000       0.006
   0.43750000  0.37500000  0.25000000       0.012
   0.50000000  0.37500000  0.25000000       0.006
   0.43750000  0.43750000  0.25000000       0.006
   0.50000000  0.43750000  0.25000000       0.006
   0.50000000  0.50000000  0.25000000       0.001
   0.31250000  0.31250000  0.31250000       0.002
   0.37500000  0.31250000  0.31250000       0.006
   0.43750000  0.31250000  0.31250000       0.006
   0.50000000  0.31250000  0.31250000       0.003
   0.37500000  0.37500000  0.31250000       0.006
   0.43750000  0.37500000  0.31250000       0.012
   0.50000000  0.37500000  0.31250000       0.006
   0.43750000  0.43750000  0.31250000       0.006
   0.50000000  0.43750000  0.31250000       0.006
   0.50000000  0.50000000  0.31250000       0.001
   0.37500000  0.37500000  0.37500000       0.002
   0.43750000  0.37500000  0.37500000       0.006
   0.50000000  0.37500000  0.37500000       0.003
   0.43750000  0.43750000  0.37500000       0.006
   0.50000000  0.43750000  0.37500000       0.006
   0.50000000  0.50000000  0.37500000       0.001
   0.43750000  0.43750000  0.43750000       0.002
   0.50000000  0.43750000  0.43750000       0.003
   0.50000000  0.50000000  0.43750000       0.001
   0.50000000  0.50000000  0.50000000       0.000
 
 position of ions in fractional coordinates (direct lattice) 
   0.00000000  0.00000000  0.00000000
   0.00000000  0.50000000  0.50000000
   0.50000000  0.00000000  0.50000000
   0.50000000  0.50000000  0.00000000
 
 position of ions in cartesian coordinates  (Angst):
   0.00000000  0.00000000  0.00000000
   0.00000000  2.05959072  2.05959072
   2.05959072  0.00000000  2.05959072
   2.05959072  2.05959072  0.00000000
 


--------------------------------------------------------------------------------------------------------


 k-point   1 :   0.0000 0.0000 0.0000  plane waves:    1309
 k-point   2 :   0.0625 0.0000 0.0000  plane waves:    1277
 k-point   3 :   0.1250 0.0000 0.0000  plane waves:    1281
 k-point   4 :   0.1875 0.0000 0.0000  plane waves:    1289
 k-point   5 :   0.2500 0.0000 0.0000  plane waves:    1285
 k-point   6 :   0.3125 0.0000 0.0000  plane waves:    1270
 k-point   7 :   0.3750 0.0000 0.0000  plane waves:    1250
 k-point   8 :   0.4375 0.0000 0.0000  plane waves:    1250
 k-point   9 :   0.5000 0.0000 0.0000  plane waves:    1238
 k-point  10 :   0.0625 0.0625 0.0000  plane waves:    1277
 k-point  11 :   0.1250 0.0625 0.0000  plane waves:    1282
 k-point  12 :   0.1875 0.0625 0.0000  plane waves:    1281
 k-point  13 :   0.2500 0.0625 0.0000  plane waves:    1275
 k-point  14 :   0.3125 0.0625 0.0000  plane waves:    1278
 k-point  15 :   0.3750 0.0625 0.0000  plane waves:    1269
 k-point  16 :   0.4375 0.0625 0.0000  plane waves:    1254
 k-point  17 :   0.5000 0.0625 0.0000  plane waves:    1256
 k-point  18 :   0.1250 0.1250 0.0000  plane waves:    1285
 k-point  19 :   0.1875 0.1250 0.0000  plane waves:    1279
 k-point  20 :   0.2500 0.1250 0.0000  plane waves:    1280
 k-point  21 :   0.3125 0.1250 0.0000  plane waves:    1275
 k-point  22 :   0.3750 0.1250 0.0000  plane waves:    1260
 k-point  23 :   0.4375 0.1250 0.0000  plane waves:    1266
 k-point  24 :   0.5000 0.1250 0.0000  plane waves:    1264
 k-point  25 :   0.1875 0.1875 0.0000  plane waves:    1275
 k-point  26 :   0.2500 0.1875 0.0000  plane waves:    1277
 k-point  27 :   0.3125 0.1875 0.0000  plane waves:    1270
 k-point  28 :   0.3750 0.1875 0.0000  plane waves:    1266
 k-point  29 :   0.4375 0.1875 0.0000  plane waves:    1268
 k-point  30 :   0.5000 0.1875 0.0000  plane waves:    1262
 k-point  31 :   0.2500 0.2500 0.0000  plane waves:    1267
 k-point  32 :   0.3125 0.2500 0.0000  plane waves:    1269
 k-point  33 :   0.3750 0.2500 0.0000  plane waves:    1269
 k-point  34 :   0.4375 0.2500 0.0000  plane waves:    1263
 k-point  35 :   0.5000 0.2500 0.0000  plane waves:    1260
 k-point  36 :   0.3125 0.3125 0.0000  plane waves:    1270
 k-point  37 :   0.3750 0.3125 0.0000  plane waves:    1276
 k-point  38 :   0.4375 0.3125 0.0000  plane waves:    1267
 k-point  39 :   0.5000 0.3125 0.0000  plane waves:    1274
 k-point  40 :   0.3750 0.3750 0.0000  plane waves:    1282
 k-point  41 :   0.4375 0.3750 0.0000  plane waves:    1279
 k-point  42 :   0.5000 0.3750 0.0000  plane waves:    1266
 k-point  43 :   0.4375 0.4375 0.0000  plane waves:    1274
 k-point  44 :   0.5000 0.4375 0.0000  plane waves:    1270
 k-point  45 :   0.5000 0.5000 0.0000  plane waves:    1260
 k-point  46 :   0.0625 0.0625 0.0625  plane waves:    1282
 k-point  47 :   0.1250 0.0625 0.0625  plane waves:    1284
 k-point  48 :   0.1875 0.0625 0.0625  plane waves:    1276
 k-point  49 :   0.2500 0.0625 0.0625  plane waves:    1273
 k-point  50 :   0.3125 0.0625 0.0625  plane waves:    1273
 k-point  51 :   0.3750 0.0625 0.0625  plane waves:    1263
 k-point  52 :   0.4375 0.0625 0.0625  plane waves:    1262
 k-point  53 :   0.5000 0.0625 0.0625  plane waves:    1252
 k-point  54 :   0.1250 0.1250 0.0625  plane waves:    1281
 k-point  55 :   0.1875 0.1250 0.0625  plane waves:    1283
 k-point  56 :   0.2500 0.1250 0.0625  plane waves:    1276
 k-point  57 :   0.3125 0.1250 0.0625  plane waves:    1272
 k-point  58 :   0.3750 0.1250 0.0625  plane waves:    1261
 k-point  59 :   0.4375 0.1250 0.0625  plane waves:    1261
 k-point  60 :   0.5000 0.1250 0.0625  plane waves:    1266
 k-point  61 :   0.1875 0.1875 0.0625  plane waves:    1276
 k-point  62 :   0.2500 0.1875 0.0625  plane waves:    1279
 k-point  63 :   0.3125 0.1875 0.0625  plane waves:    1267
 k-point  64 :   0.3750 0.1875 0.0625  plane waves:    1270
 k-point  65 :   0.4375 0.1875 0.0625  plane waves:    1267
 k-point  66 :   0.5000 0.1875 0.0625  plane waves:    1268
 k-point  67 :   0.2500 0.2500 0.0625  plane waves:    1272
 k-point  68 :   0.3125 0.2500 0.0625  plane waves:    1268
 k-point  69 :   0.3750 0.2500 0.0625  plane waves:    1271
 k-point  70 :   0.4375 0.2500 0.0625  plane waves:    1268
 k-point  71 :   0.5000 0.2500 0.0625  plane waves:    1268
 k-point  72 :   0.3125 0.3125 0.0625  plane waves:    1272
 k-point  73 :   0.3750 0.3125 0.0625  plane waves:    1274
 k-point  74 :   0.4375 0.3125 0.0625  plane waves:    1270
 k-point  75 :   0.5000 0.3125 0.0625  plane waves:    1278
 k-point  76 :   0.3750 0.3750 0.0625  plane waves:    1272
 k-point  77 :   0.4375 0.3750 0.0625  plane waves:    1270
 k-point  78 :   0.5000 0.3750 0.0625  plane waves:    1274
 k-point  79 :   0.4375 0.4375 0.0625  plane waves:    1266
 k-point  80 :   0.5000 0.4375 0.0625  plane waves:    1266
 k-point  81 :   0.5000 0.5000 0.0625  plane waves:    1260
 k-point  82 :   0.1250 0.1250 0.1250  plane waves:    1280
 k-point  83 :   0.1875 0.1250 0.1250  plane waves:    1277
 k-point  84 :   0.2500 0.1250 0.1250  plane waves:    1277
 k-point  85 :   0.3125 0.1250 0.1250  plane waves:    1264
 k-point  86 :   0.3750 0.1250 0.1250  plane waves:    1262
 k-point  87 :   0.4375 0.1250 0.1250  plane waves:    1269
 k-point  88 :   0.5000 0.1250 0.1250  plane waves:    1272
 k-point  89 :   0.1875 0.1875 0.1250  plane waves:    1270
 k-point  90 :   0.2500 0.1875 0.1250  plane waves:    1272
 k-point  91 :   0.3125 0.1875 0.1250  plane waves:    1265
 k-point  92 :   0.3750 0.1875 0.1250  plane waves:    1267
 k-point  93 :   0.4375 0.1875 0.1250  plane waves:    1271
 k-point  94 :   0.5000 0.1875 0.1250  plane waves:    1270
 k-point  95 :   0.2500 0.2500 0.1250  plane waves:    1261
 k-point  96 :   0.3125 0.2500 0.1250  plane waves:    1269
 k-point  97 :   0.3750 0.2500 0.1250  plane waves:    1263
 k-point  98 :   0.4375 0.2500 0.1250  plane waves:    1271
 k-point  99 :   0.5000 0.2500 0.1250  plane waves:    1268
 k-point 100 :   0.3125 0.3125 0.1250  plane waves:    1265
 k-point 101 :   0.3750 0.3125 0.1250  plane waves:    1266
 k-point 102 :   0.4375 0.3125 0.1250  plane waves:    1270
 k-point 103 :   0.5000 0.3125 0.1250  plane waves:    1268
 k-point 104 :   0.3750 0.3750 0.1250  plane waves:    1268
 k-point 105 :   0.4375 0.3750 0.1250  plane waves:    1270
 k-point 106 :   0.5000 0.3750 0.1250  plane waves:    1262
 k-point 107 :   0.4375 0.4375 0.1250  plane waves:    1268
 k-point 108 :   0.5000 0.4375 0.1250  plane waves:    1268
 k-point 109 :   0.5000 0.5000 0.1250  plane waves:    1268
 k-point 110 :   0.1875 0.1875 0.1875  plane waves:    1277
 k-point 111 :   0.2500 0.1875 0.1875  plane waves:    1268
 k-point 112 :   0.3125 0.1875 0.1875  plane waves:    1269
 k-point 113 :   0.3750 0.1875 0.1875  plane waves:    1267
 k-point 114 :   0.4375 0.1875 0.1875  plane waves:    1265
 k-point 115 :   0.5000 0.1875 0.1875  plane waves:    1268
 k-point 116 :   0.2500 0.2500 0.1875  plane waves:    1265
 k-point 117 :   0.3125 0.2500 0.1875  plane waves:    1265
 k-point 118 :   0.3750 0.2500 0.1875  plane waves:    1269
 k-point 119 :   0.4375 0.2500 0.1875  plane waves:    1268
 k-point 120 :   0.5000 0.2500 0.1875  plane waves:    1264
 k-point 121 :   0.3125 0.3125 0.1875  plane waves:    1264
 k-point 122 :   0.3750 0.3125 0.1875  plane waves:    1261
 k-point 123 :   0.4375 0.3125 0.1875  plane waves:    1269
 k-point 124 :   0.5000 0.3125 0.1875  plane waves:    1262
 k-point 125 :   0.3750 0.3750 0.1875  plane waves:    1265
 k-point 126 :   0.4375 0.3750 0.1875  plane waves:    1267
 k-point 127 :   0.5000 0.3750 0.1875  plane waves:    1268
 k-point 128 :   0.4375 0.4375 0.1875  plane waves:    1269
 k-point 129 :   0.5000 0.4375 0.1875  plane waves:    1278
 k-point 130 :   0.5000 0.5000 0.1875  plane waves:    1264
 k-point 131 :   0.2500 0.2500 0.2500  plane waves:    1256
 k-point 132 :   0.3125 0.2500 0.2500  plane waves:    1265
 k-point 133 :   0.3750 0.2500 0.2500  plane waves:    1266
 k-point 134 :   0.4375 0.2500 0.2500  plane waves:    1266
 k-point 135 :   0.5000 0.2500 0.2500  plane waves:    1262
 k-point 136 :   0.3125 0.3125 0.2500  plane waves:    1263
 k-point 137 :   0.3750 0.3125 0.2500  plane waves:    1267
 k-point 138 :   0.4375 0.3125 0.2500  plane waves:    1274
 k-point 139 :   0.5000 0.3125 0.2500  plane waves:    1262
 k-point 140 :   0.3750 0.3750 0.2500  plane waves:    1273
 k-point 141 :   0.4375 0.3750 0.2500  plane waves:    1268
 k-point 142 :   0.5000 0.3750 0.2500  plane waves:    1266
 k-point 143 :   0.4375 0.4375 0.2500  plane waves:    1264
 k-point 144 :   0.5000 0.4375 0.2500  plane waves:    1264
 k-point 145 :   0.5000 0.5000 0.2500  plane waves:    1272
 k-point 146 :   0.3125 0.3125 0.3125  plane waves:    1265
 k-point 147 :   0.3750 0.3125 0.3125  plane waves:    1258
 k-point 148 :   0.4375 0.3125 0.3125  plane waves:    1264
 k-point 149 :   0.5000 0.3125 0.3125  plane waves:    1270
 k-point 150 :   0.3750 0.3750 0.3125  plane waves:    1262
 k-point 151 :   0.4375 0.3750 0.3125  plane waves:    1272
 k-point 152 :   0.5000 0.3750 0.3125  plane waves:    1278
 k-point 153 :   0.4375 0.4375 0.3125  plane waves:    1275
 k-point 154 :   0.5000 0.4375 0.3125  plane waves:    1276
 k-point 155 :   0.5000 0.5000 0.3125  plane waves:    1284
 k-point 156 :   0.3750 0.3750 0.3750  plane waves:    1268
 k-point 157 :   0.4375 0.3750 0.3750  plane waves:    1283
 k-point 158 :   0.5000 0.3750 0.3750  plane waves:    1288
 k-point 159 :   0.4375 0.4375 0.3750  plane waves:    1279
 k-point 160 :   0.5000 0.4375 0.3750  plane waves:    1286
 k-point 161 :   0.5000 0.5000 0.3750  plane waves:    1276
 k-point 162 :   0.4375 0.4375 0.4375  plane waves:    1277
 k-point 163 :   0.5000 0.4375 0.4375  plane waves:    1290
 k-point 164 :   0.5000 0.5000 0.4375  plane waves:    1292
 k-point 165 :   0.5000 0.5000 0.5000  plane waves:    1328

 maximum and minimum number of plane-waves per node :      1328     1238

 maximum number of plane-waves:      1328
 maximum index in each direction: 
   IXMAX=    6   IYMAX=    6   IZMAX=    6
   IXMIN=   -7   IYMIN=   -7   IZMIN=   -7


 serial   3D FFT for wavefunctions
 parallel 3D FFT for charge:
    minimum data exchange during FFTs selected (reduces bandwidth)


 total amount of memory used by VASP MPI-rank0    48596. kBytes
=======================================================================

   base      :      30000. kBytes
   nonl-proj :      14278. kBytes
   fftplans  :        147. kBytes
   grid      :        485. kBytes
   one-center:         12. kBytes
   wavefun   :       3674. kBytes
 
     INWAV:  cpu time      0.0000: real time      0.0002
 Broyden mixing: mesh for mixing (old mesh)
   NGX = 13   NGY = 13   NGZ = 13
  (NGX  = 40   NGY  = 40   NGZ  = 40)
  gives a total of   2197 points

 initial charge density was supplied:
 charge density of overlapping atoms calculated
 number of electron      12.0000000 magnetization 
 keeping initial charge density in first step


--------------------------------------------------------------------------------------------------------


 Maximum index for augmentation-charges          325 (set IRDMAX)


--------------------------------------------------------------------------------------------------------


 First call to EWALD:  gamma=   0.430
 Maximum number of real-space cells 3x 3x 3
 Maximum number of reciprocal cells 3x 3x 3

    FEWALD:  cpu time      0.0011: real time      0.0011


--------------------------------------- Iteration      1(   1)  ---------------------------------------


    POTLOK:  cpu time      0.0021: real time      0.0021
    SETDIJ:  cpu time      0.0011: real time      0.0011
     EDDAV:  cpu time      0.6060: real time      0.6105
       DOS:  cpu time      0.0007: real time      0.0007
    --------------------------------------------
      LOOP:  cpu time      0.6098: real time      0.6145

 eigenvalue-minimisations  :  7920
 total energy-change (2. order) :-0.7980824E+01  (-0.3827217E+03)
 number of electron      12.0000000 magnetization 
 augmentation part       12.0000000 magnetization 

 Free energy of the ion-electron system (eV)
  ---------------------------------------------------
  alpha Z        PSCENC =        -0.76890493
  Ewald energy   TEWEN  =      -288.49875081
  -Hartree energ DENC   =        -0.50533224
  -exchange      EXHF   =         0.00000000
  -V(xc)+E(xc)   XCENC  =      -105.36736180
  PAW double counting   =       264.80062850     -136.98248303
  entropy T*S    EENTRO =        -0.00182875
  eigenvalues    EBANDS =        45.19059222
  atomic energy  EATOM  =       214.15261729
  Solvation  Ediel_sol  =         0.00000000
  ---------------------------------------------------
  free energy    TOTEN  =        -7.98082354 eV

  energy without entropy =       -7.97899479  energy(sigma->0) =       -7.97990917


--------------------------------------------------------------------------------------------------------




--------------------------------------- Iteration      1(   2)  ---------------------------------------


     EDDAV:  cpu time      1.0315: real time      1.0381
       DOS:  cpu time      0.0007: real time      0.0007
    --------------------------------------------
      LOOP:  cpu time      1.0322: real time      1.0388

 eigenvalue-minimisations  : 11616
 total energy-change (2. order) :-0.7008772E+01  (-0.6951523E+01)
 number of electron      12.0000000 magnetization 
 augmentation part       12.0000000 magnetization 

 Free energy of the ion-electron system (eV)
  ---------------------------------------------------
  alpha Z        PSCENC =        -0.76890493
  Ewald energy   TEWEN  =      -288.49875081
  -Hartree energ DENC   =        -0.50533224
  -exchange      EXHF   =         0.00000000
  -V(xc)+E(xc)   XCENC  =      -105.36736180
  PAW double counting   =       264.80062850     -136.98248303
  entropy T*S    EENTRO =        -0.00165692
  eigenvalues    EBANDS =        38.18164847
  atomic energy  EATOM  =       214.15261729
  Solvation  Ediel_sol  =         0.00000000
  ---------------------------------------------------
  free energy    TOTEN  =       -14.98959546 eV

  energy without entropy =      -14.98793854  energy(sigma->0) =      -14.98876700


--------------------------------------------------------------------------------------------------------




--------------------------------------- Iteration      1(   3)  ---------------------------------------


     EDDAV:  cpu time      0.9200: real time      0.9259
       DOS:  cpu time      0.0007: real time      0.0007
    --------------------------------------------
      LOOP:  cpu time      0.9207: real time      0.9265

 eigenvalue-minimisations  : 10536
 total energy-change (2. order) :-0.3156348E-01  (-0.3155974E-01)
 number of electron      12.0000000 magnetization 
 augmentation part       12.0000000 magnetization 

 Free energy of the ion-electron system (eV)
  ---------------------------------------------------
  alpha Z        PSCENC =        -0.76890493
  Ewald energy   TEWEN  =      -288.49875081
  -Hartree energ DENC   =        -0.50533224
  -exchange      EXHF   =         0.00000000
  -V(xc)+E(xc)   XCENC  =      -105.36736180
  PAW double counting   =       264.80062850     -136.98248303
  entropy T*S    EENTRO =        -0.00167491
  eigenvalues    EBANDS =        38.15010298
  atomic energy  EATOM  =       214.15261729
  Solvation  Ediel_sol  =         0.00000000
  ---------------------------------------------------
  free energy    TOTEN  =       -15.02115894 eV

  energy without entropy =      -15.01948403  energy(sigma->0) =      -15.02032148


--------------------------------------------------------------------------------------------------------




--------------------------------------- Iteration      1(   4)  ---------------------------------------


     EDDAV:  cpu time      1.3598: real time      1.3682
       DOS:  cpu time      0.0006: real time      0.0006
    --------------------------------------------
      LOOP:  cpu time      1.3604: real time      1.3688

 eigenvalue-minimisations  : 13608
 total energy-change (2. order) :-0.5427150E-04  (-0.5427200E-04)
 number of electron      12.0000000 magnetization 
 augmentation part       12.0000000 magnetization 

 Free energy of the ion-electron system (eV)
  ---------------------------------------------------
  alpha Z        PSCENC =        -0.76890493
  Ewald energy   TEWEN  =      -288.49875081
  -Hartree energ DENC   =        -0.50533224
  -exchange      EXHF   =         0.00000000
  -V(xc)+E(xc)   XCENC  =      -105.36736180
  PAW double counting   =       264.80062850     -136.98248303
  entropy T*S    EENTRO =        -0.00167511
  eigenvalues    EBANDS =        38.15004891
  atomic energy  EATOM  =       214.15261729
  Solvation  Ediel_sol  =         0.00000000
  ---------------------------------------------------
  free energy    TOTEN  =       -15.02121321 eV

  energy without entropy =      -15.01953810  energy(sigma->0) =      -15.02037565


--------------------------------------------------------------------------------------------------------




--------------------------------------- Iteration      1(   5)  ---------------------------------------


     EDDAV:  cpu time      0.9332: real time      0.9391
       DOS:  cpu time      0.0006: real time      0.0006
    CHARGE:  cpu time      0.0132: real time      0.0132
    MIXING:  cpu time      0.0002: real time      0.0002
    --------------------------------------------
      LOOP:  cpu time      0.9472: real time      0.9532

 eigenvalue-minimisations  : 10536
 total energy-change (2. order) :-0.2165183E-07  (-0.2109279E-07)
 number of electron      11.9999997 magnetization 
 augmentation part       -0.1528411 magnetization 

 Broyden mixing:
  rms(total) = 0.24270E+00    rms(broyden)= 0.24270E+00
  rms(prec ) = 0.45517E+00
  weight for this iteration     100.00

 Free energy of the ion-electron system (eV)
  ---------------------------------------------------
  alpha Z        PSCENC =        -0.76890493
  Ewald energy   TEWEN  =      -288.49875081
  -Hartree energ DENC   =        -0.50533224
  -exchange      EXHF   =         0.00000000
  -V(xc)+E(xc)   XCENC  =      -105.36736180
  PAW double counting   =       264.80062850     -136.98248303
  entropy T*S    EENTRO =        -0.00167511
  eigenvalues    EBANDS =        38.15004889
  atomic energy  EATOM  =       214.15261729
  Solvation  Ediel_sol  =         0.00000000
  ---------------------------------------------------
  free energy    TOTEN  =       -15.02121323 eV

  energy without entropy =      -15.01953812  energy(sigma->0) =      -15.02037568


--------------------------------------------------------------------------------------------------------




--------------------------------------- Iteration      1(   6)  ---------------------------------------


    POTLOK:  cpu time      0.0020: real time      0.0021
    SETDIJ:  cpu time      0.0009: real time      0.0009
     EDDAV:  cpu time      1.1152: real time      1.1220
       DOS:  cpu time      0.0006: real time      0.0006
    CHARGE:  cpu time      0.0131: real time      0.0132
    MIXING:  cpu time      0.0002: real time      0.0002
    --------------------------------------------
      LOOP:  cpu time      1.1320: real time      1.1391

 eigenvalue-minimisations  : 11760
 total energy-change (2. order) : 0.5018245E-01  (-0.7736288E-03)
 number of electron      11.9999997 magnetization 
 augmentation part       -0.1551825 magnetization 

 Broyden mixing:
  rms(total) = 0.14144E+00    rms(broyden)= 0.14144E+00
  rms(prec ) = 0.27916E+00
  weight for this iteration     100.00

 eigenvalues of (default mixing * dielectric matrix)
  average eigenvalue GAMMA=   2.3330
  2.3330

 Free energy of the ion-electron system (eV)
  ---------------------------------------------------
  alpha Z        PSCENC =        -0.76890493
  Ewald energy   TEWEN  =      -288.49875081
  -Hartree energ DENC   =        -0.39533202
  -exchange      EXHF   =         0.00000000
  -V(xc)+E(xc)   XCENC  =      -105.24584790
  PAW double counting   =       363.68288211     -235.86355907
  entropy T*S    EENTRO =        -0.00168731
  eigenvalues    EBANDS =        37.96755186
  atomic energy  EATOM  =       214.15261729
  Solvation  Ediel_sol  =         0.00000000
  ---------------------------------------------------
  free energy    TOTEN  =       -14.97103078 eV

  energy without entropy =      -14.96934347  energy(sigma->0) =      -14.97018713


--------------------------------------------------------------------------------------------------------




--------------------------------------- Iteration      1(   7)  ---------------------------------------


    POTLOK:  cpu time      0.0020: real time      0.0021
    SETDIJ:  cpu time      0.0009: real time      0.0009
     EDDAV:  cpu time      0.8690: real time      0.8744
       DOS:  cpu time      0.0006: real time      0.0006
    CHARGE:  cpu time      0.0129: real time      0.0129
    MIXING:  cpu time      0.0002: real time      0.0002
    --------------------------------------------
      LOOP:  cpu time      0.8856: real time      0.8913

 eigenvalue-minimisations  : 10176
 total energy-change (2. order) : 0.3658480E-01  (-0.2198179E-02)
 number of electron      11.9999997 magnetization 
 augmentation part       -0.1594956 magnetization 

 Broyden mixing:
  rms(total) = 0.25285E-01    rms(broyden)= 0.25285E-01
  rms(prec ) = 0.27349E-01
  weight for this iteration     100.00

 eigenvalues of (default mixing * dielectric matrix)
  average eigenvalue GAMMA=   2.7354
  2.7354  2.7354

 Free energy of the ion-electron system (eV)
  ---------------------------------------------------
  alpha Z        PSCENC =        -0.76890493
  Ewald energy   TEWEN  =      -288.49875081
  -Hartree energ DENC   =        -0.38591676
  -exchange      EXHF   =         0.00000000
  -V(xc)+E(xc)   XCENC  =      -105.00090794
  PAW double counting   =       553.02196898     -425.20762887
  entropy T*S    EENTRO =        -0.00171756
  eigenvalues    EBANDS =        37.75479462
  atomic energy  EATOM  =       214.15261729
  Solvation  Ediel_sol  =         0.00000000
  ---------------------------------------------------
  free energy    TOTEN  =       -14.93444598 eV

  energy without entropy =      -14.93272842  energy(sigma->0) =      -14.93358720


--------------------------------------------------------------------------------------------------------




--------------------------------------- Iteration      1(   8)  ---------------------------------------


    POTLOK:  cpu time      0.0019: real time      0.0020
    SETDIJ:  cpu time      0.0009: real time      0.0009
     EDDAV:  cpu time      1.5605: real time      1.5720
       DOS:  cpu time      0.0007: real time      0.0007
    CHARGE:  cpu time      0.0134: real time      0.0135
    MIXING:  cpu time      0.0002: real time      0.0002
    --------------------------------------------
      LOOP:  cpu time      1.5775: real time      1.5892

 eigenvalue-minimisations  : 13896
 total energy-change (2. order) : 0.1038886E-03  (-0.7851584E-05)
 number of electron      11.9999997 magnetization 
 augmentation part       -0.1598198 magnetization 

 Broyden mixing:
  rms(total) = 0.16766E-02    rms(broyden)= 0.16766E-02
  rms(prec ) = 0.34250E-02
  weight for this iteration     100.00

 eigenvalues of (default mixing * dielectric matrix)
  average eigenvalue GAMMA=   2.1249
  1.0382  2.5853  2.7512

 Free energy of the ion-electron system (eV)
  ---------------------------------------------------
  alpha Z        PSCENC =        -0.76890493
  Ewald energy   TEWEN  =      -288.49875081
  -Hartree energ DENC   =        -0.39815654
  -exchange      EXHF   =         0.00000000
  -V(xc)+E(xc)   XCENC  =      -104.98439023
  PAW double counting   =       510.65614164     -382.85483142
  entropy T*S    EENTRO =        -0.00171835
  eigenvalues    EBANDS =        37.76365125
  atomic energy  EATOM  =       214.15261729
  Solvation  Ediel_sol  =         0.00000000
  ---------------------------------------------------
  free energy    TOTEN  =       -14.93434209 eV

  energy without entropy =      -14.93262374  energy(sigma->0) =      -14.93348292


--------------------------------------------------------------------------------------------------------




--------------------------------------- Iteration      1(   9)  ---------------------------------------


    POTLOK:  cpu time      0.0020: real time      0.0022
    SETDIJ:  cpu time      0.0009: real time      0.0009
     EDDAV:  cpu time      0.9577: real time      0.9642
       DOS:  cpu time      0.0006: real time      0.0006
    --------------------------------------------
      LOOP:  cpu time      0.9612: real time      0.9679

 eigenvalue-minimisations  : 10536
 total energy-change (2. order) : 0.7393230E-05  (-0.3932076E-06)
 number of electron      11.9999997 magnetization 
 augmentation part       -0.1598198 magnetization 

 Free energy of the ion-electron system (eV)
  ---------------------------------------------------
  alpha Z        PSCENC =        -0.76890493
  Ewald energy   TEWEN  =      -288.49875081
  -Hartree energ DENC   =        -0.39955865
  -exchange      EXHF   =         0.00000000
  -V(xc)+E(xc)   XCENC  =      -104.98075146
  PAW double counting   =       512.22724970     -384.42578682
  entropy T*S    EENTRO =        -0.00171890
  eigenvalues    EBANDS =        37.76126988
  atomic energy  EATOM  =       214.15261729
  Solvation  Ediel_sol  =         0.00000000
  ---------------------------------------------------
  free energy    TOTEN  =       -14.93433470 eV

  energy without entropy =      -14.93261580  energy(sigma->0) =      -14.93347525


--------------------------------------------------------------------------------------------------------




 average (electrostatic) potential at core
  the test charge radii are     1.0406
  (the norm of the test charge is              1.0000)
       1 -73.2934       2 -73.2934       3 -73.2934       4 -73.2934
 
 
 
 E-fermi :   7.4076     XC(G=0):  -9.9910     alpha+bet :-14.0478

 Fermi energy:         7.4076317137

 k-point     1 :       0.0000    0.0000    0.0000
  band No.  band energies     occupation 
      1      -3.3289      2.00000
      2       4.6302      2.00000
      3       4.6302      2.00000
      4       4.6302      2.00000
      5       5.8186      2.00000
      6       5.8186      2.00000
      7       5.8186      2.00000
      8      12.6595      0.00000
      9      12.6595      0.00000
     10      12.6595      0.00000
     11      12.7493      0.00000
     12      12.7493      0.00000
     13      12.7493      0.00000
     14      12.7493      0.00000
     15      12.7493      0.00000
     16      12.7493      0.00000
     17      15.9681      0.00000
     18      15.9681      0.00000
     19      15.9681      0.00000
     20      19.7234      0.00000
     21      19.7234      0.00000
     22      19.7234      0.00000
     23      20.7911      0.00000
     24      20.7911      0.00000

 k-point     2 :       0.0625    0.0000    0.0000
  band No.  band energies     occupation 
[...]
      5       4.0244      2.00000
      6       4.0244      2.00000
      7       6.0920      2.00000
      8       6.0920      2.00000
      9      14.2499      0.00000
     10      14.2499      0.00000
     11      15.1865      0.00000
     12      15.1865      0.00000
     13      15.9882      0.00000
     14      15.9882      0.00000
     15      17.0813      0.00000
     16      17.0813      0.00000
     17      18.4093      0.00000
     18      18.4093      0.00000
     19      19.3714      0.00000
     20      19.3714      0.00000
     21      20.2579      0.00000
     22      20.2579      0.00000
     23      20.9083      0.00000
     24      20.9083      0.00000

 k-point   153 :       0.4375    0.4375    0.3125
  band No.  band energies     occupation 
      1       0.8065      2.00000
      2       1.8641      2.00000
      3       1.8641      2.00000
      4       2.9139      2.00000
      5       3.9594      2.00000
      6       4.9963      2.00000
      7       4.9963      2.00000
      8       6.0284      2.00000
      9      14.2027      0.00000
     10      15.1078      0.00000
     11      15.1078      0.00000
     12      16.0156      0.00000
     13      16.0822      0.00000
     14      16.0822      0.00000
     15      16.3716      0.00000
     16      18.1491      0.00000
     17      18.2161      0.00000
     18      19.1879      0.00000
     19      19.1879      0.00000
     20      19.2770      0.00000
     21      19.7695      0.00000
     22      20.2296      0.00000
     23      20.2296      0.00000
     24      21.1314      0.00000

 k-point   154 :       0.5000    0.4375    0.3125
  band No.  band energies     occupation 
      1       1.3032      2.00000
      2       1.3032      2.00000
      3       2.3574      2.00000
      4       2.3574      2.00000
      5       4.4460      2.00000
      6       4.4460      2.00000
      7       5.4809      2.00000
      8       5.4809      2.00000
      9      14.6393      0.00000
     10      14.6393      0.00000
     11      15.5439      0.00000
     12      15.5439      0.00000
     13      16.3914      0.00000
     14      16.3914      0.00000
     15      17.3285      0.00000
     16      17.3285      0.00000
     17      18.9691      0.00000
     18      18.9691      0.00000
     19      19.3552      0.00000
     20      19.3552      0.00000
     21      19.8412      0.00000
     22      19.8412      0.00000
     23      20.3476      0.00000
     24      20.3476      0.00000

 k-point   155 :       0.5000    0.5000    0.3125
  band No.  band energies     occupation 
      1       1.7984      2.00000
      2       1.7984      2.00000
      3       1.7984      2.00000
      4       1.7984      2.00000
      5       4.9319      2.00000
      6       4.9319      2.00000
      7       4.9319      2.00000
      8       4.9319      2.00000
      9      15.0751      0.00000
     10      15.0751      0.00000
     11      15.0751      0.00000
     12      15.0751      0.00000
     13      17.2499      0.00000
     14      17.2499      0.00000
     15      17.2499      0.00000
     16      17.2499      0.00000
     17      18.9709      0.00000
     18      18.9709      0.00000
     19      18.9709      0.00000
     20      18.9709      0.00000
     21      20.1333      0.00000
     22      20.1333      0.00000
     23      20.1333      0.00000
     24      20.1333      0.00000

 k-point   156 :       0.3750    0.3750    0.3750
  band No.  band energies     occupation 
      1       0.3082      2.00000
      2       2.4223      2.00000
      3       2.4223      2.00000
      4       2.4223      2.00000
      5       4.5117      2.00000
      6       4.5117      2.00000
      7       4.5117      2.00000
      8       6.5749      2.00000
      9      14.7245      0.00000
     10      14.7245      0.00000
     11      14.7245      0.00000
     12      15.9302      0.00000
     13      15.9302      0.00000
     14      15.9302      0.00000
     15      17.6651      0.00000
     16      17.6651      0.00000
     17      17.6651      0.00000
     18      17.8043      0.00000
     19      17.8043      0.00000
     20      19.7336      0.00000
     21      19.7336      0.00000
     22      21.3185      0.00000
     23      21.6208      0.00000
     24      21.6208      0.00000

 k-point   157 :       0.4375    0.3750    0.3750
  band No.  band energies     occupation 
      1       0.7402      2.00000
      2       1.7982      2.00000
      3       2.8481      2.00000
      4       2.8481      2.00000
      5       3.8958      2.00000
      6       3.8958      2.00000
      7       4.9329      2.00000
      8       5.9654      2.00000
      9      15.0975      0.00000
     10      15.0975      0.00000
     11      15.8838      0.00000
     12      15.8838      0.00000
     13      16.0499      0.00000
     14      16.3132      0.00000
     15      17.2525      0.00000
     16      17.9623      0.00000
     17      18.1756      0.00000
     18      18.4450      0.00000
     19      18.4450      0.00000
     20      18.7076      0.00000
     21      20.1103      0.00000
     22      20.7829      0.00000
     23      20.7829      0.00000
     24      21.0565      0.00000

 k-point   158 :       0.5000    0.3750    0.3750
  band No.  band energies     occupation 
      1       1.2371      2.00000
      2       1.2371      2.00000
      3       3.3020      2.00000
      4       3.3020      2.00000
      5       3.3784      2.00000
      6       3.3784      2.00000
      7       5.4177      2.00000
      8       5.4177      2.00000
      9      15.4650      0.00000
     10      15.4650      0.00000
     11      15.5452      0.00000
     12      15.5452      0.00000
     13      16.7543      0.00000
     14      16.7543      0.00000
     15      17.3631      0.00000
     16      17.3631      0.00000
     17      18.2182      0.00000
     18      18.2182      0.00000
     19      19.4389      0.00000
     20      19.4389      0.00000
     21      19.8056      0.00000
     22      19.8056      0.00000
     23      20.5524      0.00000
     24      20.5524      0.00000

 k-point   159 :       0.4375    0.4375    0.3750
  band No.  band energies     occupation 
      1       1.1711      2.00000
      2       2.2262      2.00000
      3       2.2262      2.00000
      4       3.2388      2.00000
      5       3.3117      2.00000
      6       4.3179      2.00000
      7       4.3179      2.00000
      8       5.3538      2.00000
      9      15.4722      0.00000
     10      16.2590      0.00000
     11      16.2590      0.00000
     12      16.3940      0.00000
     13      16.3940      0.00000
     14      16.6958      0.00000
     15      17.1161      0.00000
     16      18.3773      0.00000
     17      18.3866      0.00000
     18      18.6875      0.00000
     19      18.6875      0.00000
     20      18.8110      0.00000
     21      19.5968      0.00000
     22      20.2404      0.00000
     23      20.2404      0.00000
     24      20.5084      0.00000

 k-point   160 :       0.5000    0.4375    0.3750
  band No.  band energies     occupation 
      1       1.6667      2.00000
      2       1.6667      2.00000
      3       2.7180      2.00000
      4       2.7180      2.00000
      5       3.7657      2.00000
      6       3.7657      2.00000
      7       4.8043      2.00000
      8       4.8043      2.00000
      9      15.8787      0.00000
     10      15.8787      0.00000
     11      16.6835      0.00000
     12      16.6835      0.00000
     13      16.7082      0.00000
     14      16.7082      0.00000
     15      17.6265      0.00000
     16      17.6265      0.00000
     17      18.8227      0.00000
     18      18.8227      0.00000
     19      19.1294      0.00000
     20      19.1294      0.00000
     21      19.7574      0.00000
     22      19.7574      0.00000
     23      19.7881      0.00000
     24      19.7881      0.00000

 k-point   161 :       0.5000    0.5000    0.3750
  band No.  band energies     occupation 
      1       2.1607      2.00000
      2       2.1607      2.00000
      3       2.1607      2.00000
      4       2.1607      2.00000
      5       4.2532      2.00000
      6       4.2532      2.00000
      7       4.2532      2.00000
      8       4.2532      2.00000
      9      16.2897      0.00000
     10      16.2897      0.00000
     11      16.2897      0.00000
     12      16.2897      0.00000
     13      17.5707      0.00000
     14      17.5707      0.00000
     15      17.5707      0.00000
     16      17.5707      0.00000
     17      19.0755      0.00000
     18      19.0755      0.00000
     19      19.0755      0.00000
     20      19.0755      0.00000
     21      19.5150      0.00000
     22      19.5150      0.00000
     23      19.5150      0.00000
     24      19.5150      0.00000

 k-point   162 :       0.4375    0.4375    0.4375
  band No.  band energies     occupation 
      1       1.6008      2.00000
      2       2.6527      2.00000
      3       2.6527      2.00000
      4       2.6527      2.00000
      5       3.7010      2.00000
      6       3.7010      2.00000
      7       3.7010      2.00000
      8       4.7401      2.00000
      9      16.7410      0.00000
     10      16.7410      0.00000
     11      16.7410      0.00000
     12      17.0779      0.00000
     13      17.0779      0.00000
     14      17.0779      0.00000
     15      17.9985      0.00000
     16      17.9985      0.00000
     17      18.5558      0.00000
     18      18.5558      0.00000
     19      18.5558      0.00000
     20      19.0220      0.00000
     21      19.0220      0.00000
     22      19.9461      0.00000
     23      19.9461      0.00000
     24      19.9461      0.00000

 k-point   163 :       0.5000    0.4375    0.4375
  band No.  band energies     occupation 
      1       2.0950      2.00000
      2       2.0950      2.00000
      3       3.1122      2.00000
      4       3.1122      2.00000
      5       3.1779      2.00000
      6       3.1779      2.00000
      7       4.1887      2.00000
      8       4.1887      2.00000
      9      17.0634      0.00000
     10      17.0634      0.00000
     11      17.0779      0.00000
     12      17.0779      0.00000
     13      17.5157      0.00000
     14      17.5157      0.00000
     15      17.9178      0.00000
     16      17.9178      0.00000
     17      18.5608      0.00000
     18      18.5608      0.00000
     19      19.1121      0.00000
     20      19.1121      0.00000
     21      19.3184      0.00000
     22      19.3184      0.00000
     23      19.4468      0.00000
     24      19.4468      0.00000

 k-point   164 :       0.5000    0.5000    0.4375
  band No.  band energies     occupation 
      1       2.5875      2.00000
      2       2.5875      2.00000
      3       2.5875      2.00000
      4       2.5875      2.00000
      5       3.6360      2.00000
      6       3.6360      2.00000
      7       3.6360      2.00000
      8       3.6360      2.00000
      9      17.4403      0.00000
     10      17.4403      0.00000
     11      17.4403      0.00000
     12      17.4403      0.00000
     13      17.9390      0.00000
     14      17.9390      0.00000
     15      17.9390      0.00000
     16      17.9390      0.00000
     17      18.9675      0.00000
     18      18.9675      0.00000
     19      18.9675      0.00000
     20      18.9675      0.00000
     21      18.9817      0.00000
     22      18.9817      0.00000
     23      18.9817      0.00000
     24      18.9817      0.00000

 k-point   165 :       0.5000    0.5000    0.5000
  band No.  band energies     occupation 
      1       3.0489      2.00000
      2       3.0489      2.00000
      3       3.0489      2.00000
      4       3.0489      2.00000
      5       3.1109      2.00000
      6       3.1109      2.00000
      7       3.1109      2.00000
      8       3.1109      2.00000
      9      18.2295      0.00000
     10      18.2295      0.00000
     11      18.2295      0.00000
     12      18.2295      0.00000
     13      18.2295      0.00000
     14      18.2295      0.00000
     15      18.2295      0.00000
     16      18.2295      0.00000
     17      18.6171      0.00000
     18      18.6171      0.00000
     19      18.6171      0.00000
     20      18.6171      0.00000
     21      18.6171      0.00000
     22      18.6171      0.00000
     23      18.6171      0.00000
     24      18.6171      0.00000


--------------------------------------------------------------------------------------------------------


 soft charge-density along one line, spin component           1
         0         1         2         3         4         5         6         7         8         9
 total charge-density along one line
 
 pseudopotential strength for first ion, spin component:           1
  8.463  14.424  -0.000   0.000  -0.000  -0.000   0.000  -0.000
 14.424  24.585  -0.000   0.000   0.000  -0.000   0.000   0.000
 -0.000  -0.000   1.985   0.000   0.000   5.728   0.000   0.000
  0.000   0.000   0.000   1.985  -0.000   0.000   5.728  -0.000
 -0.000   0.000   0.000  -0.000   1.985   0.000  -0.000   5.728
 -0.000  -0.000   5.728   0.000   0.000  16.440   0.000   0.000
  0.000   0.000   0.000   5.728  -0.000   0.000  16.440  -0.000
 -0.000   0.000   0.000  -0.000   5.728   0.000  -0.000  16.440
 total augmentation occupancy for first ion, spin component:           1
  3.100  -0.714   0.000   0.000   0.000   0.000   0.000   0.000
 -0.714   0.236   0.000   0.000   0.000   0.000   0.000   0.000
  0.000   0.000   1.033   0.000   0.000  -0.065   0.000   0.000
  0.000   0.000   0.000   1.033  -0.000   0.000  -0.065  -0.000
  0.000   0.000   0.000  -0.000   1.033   0.000   0.000  -0.065
  0.000   0.000  -0.065   0.000   0.000   0.005   0.000   0.000
  0.000   0.000   0.000  -0.065   0.000  -0.000   0.005   0.000
  0.000   0.000   0.000  -0.000  -0.065   0.000   0.000   0.005


------------------------ aborting loop because EDIFF is reached ----------------------------------------


    CHARGE:  cpu time      0.0130: real time      0.0130
    FORLOC:  cpu time      0.0001: real time      0.0001
    FORNL :  cpu time      0.0337: real time      0.0339
    STRESS:  cpu time      0.3413: real time      0.3433
    FORCOR:  cpu time      0.0017: real time      0.0017
    FORHAR:  cpu time      0.0004: real time      0.0004
    MIXING:  cpu time      0.0002: real time      0.0002
    OFIELD:  cpu time      0.0000: real time      0.0000

  FORCE on cell =-STRESS in cart. coord.  units (eV):
  Direction    XX          YY          ZZ          XY          YZ          ZX
  --------------------------------------------------------------------------------------
  Alpha Z    -0.76890    -0.76890    -0.76890
  Ewald     -96.16629   -96.16629   -96.16629     0.00000     0.00000     0.00000
  Hartree     0.13317     0.13317     0.13317    -0.00000    -0.00000    -0.00000
  E(xc)     -33.65889   -33.65889   -33.65889    -0.00000     0.00000     0.00000
  Local       0.36899     0.36899     0.36899    -0.00000     0.00000     0.00000
  n-local    73.64721    74.40745    76.04105     0.10720     0.74893     0.29079
  augment    -4.26858    -4.26858    -4.26858     0.00000     0.00000     0.00000
  Kinetic    55.13460    57.42768    61.13256     1.74976    -7.99071    -1.68450
  Fock        0.00000     0.00000     0.00000     0.00000     0.00000     0.00000
  -------------------------------------------------------------------------------------
  Total      -1.76366    -1.76366    -1.76366     0.00000    -0.00000    -0.00000
  in kB     -40.42904   -40.42904   -40.42904     0.00000    -0.00000    -0.00000
  external pressure =      -40.43 kB  Pullay stress =        0.00 kB


 VOLUME and BASIS-vectors are now :
 -----------------------------------------------------------------------------
  energy-cutoff  :      400.00
  volume of cell :       69.89
      direct lattice vectors                 reciprocal lattice vectors
     4.119181432  0.000000000  0.000000000     0.242766680  0.000000000  0.000000000
     0.000000000  4.119181432  0.000000000     0.000000000  0.242766680  0.000000000
     0.000000000  0.000000000  4.119181432     0.000000000  0.000000000  0.242766680

  length of vectors
     4.119181432  4.119181432  4.119181432     0.242766680  0.242766680  0.242766680


 FORCES acting on ions
    electron-ion (+dipol)            ewald-force                    non-local-force                 convergence-correction
 -----------------------------------------------------------------------------------------------
   0.117E-13 -.309E-16 0.832E-14   -.393E-15 -.131E-14 0.376E-16   -.295E-24 0.191E-24 0.466E-24   0.199E-14 -.223E-15 0.210E-14
   0.873E-14 -.224E-14 -.167E-14   -.392E-15 0.526E-15 0.333E-15   0.766E-25 -.156E-25 -.174E-24   0.202E-14 0.219E-15 -.217E-14
   -.248E-14 0.137E-14 -.314E-13   0.382E-15 -.483E-15 0.346E-15   0.411E-24 -.319E-24 0.158E-25   -.208E-14 -.229E-15 -.219E-14
   -.578E-14 -.109E-13 0.199E-13   0.382E-15 0.135E-14 -.649E-15   0.491E-24 0.137E-26 -.180E-24   -.209E-14 0.236E-15 0.210E-14
 -----------------------------------------------------------------------------------------------
   0.122E-13 -.118E-13 -.490E-14   -.214E-16 0.866E-16 0.676E-16   0.683E-24 -.142E-24 0.127E-24   -.158E-15 0.259E-17 -.168E-15
 
 
 POSITION                                       TOTAL-FORCE (eV/Angst)
 -----------------------------------------------------------------------------------
      0.00000      0.00000      0.00000         0.000000      0.000000      0.000000
      0.00000      2.05959      2.05959        -0.000000      0.000000      0.000000
      2.05959      0.00000      2.05959        -0.000000     -0.000000     -0.000000
      2.05959      2.05959      0.00000         0.000000     -0.000000      0.000000
 -----------------------------------------------------------------------------------
    total drift:                                0.000000     -0.000000     -0.000000


--------------------------------------------------------------------------------------------------------



  FREE ENERGIE OF THE ION-ELECTRON SYSTEM (eV)
  ---------------------------------------------------
  free  energy   TOTEN  =       -14.93433470 eV

  energy  without entropy=      -14.93261580  energy(sigma->0) =      -14.93347525
 


--------------------------------------------------------------------------------------------------------


    POTLOK:  cpu time      0.0029: real time      0.0029


--------------------------------------------------------------------------------------------------------




--------------------------------------------------------------------------------------------------------


  
 reached required accuracy - stopping structural energy minimisation
 writing wavefunctions
     LOOP+:  cpu time     10.0553: real time     10.1804
    4ORBIT:  cpu time      0.0000: real time      0.0000

 total amount of memory used by VASP MPI-rank0    48596. kBytes
=======================================================================

   base      :      30000. kBytes
   nonl-proj :      14278. kBytes
   fftplans  :        147. kBytes
   grid      :        485. kBytes
   one-center:         12. kBytes
   wavefun   :       3674. kBytes
 
  
  
 General timing and accounting informations for this job:
 ========================================================
  
                  Total CPU time used (sec):       10.923
                            User time (sec):       10.523
                          System time (sec):        0.400
                         Elapsed time (sec):       11.984
  
                   Maximum memory used (kb):      294296.
                   Average memory used (kb):          N/A
  
                          Minor page faults:        29184
                          Major page faults:         1424
                 Voluntary context switches:         2506
